                  Welcome to Q-Chem
     A Quantum Leap Into The Future Of Chemistry


 Q-Chem 6.0 (devel), Q-Chem, Inc., Pleasanton, CA (2022)

 E. Epifanovsky,  A. T. B. Gilbert,  Xintian Feng,  Joonho Lee,  Yuezhi Mao,  
 N. Mardirossian,  P. Pokhilko,  A. White,  M. Wormit,  M. P. Coons,  
 A. L. Dempwolff,  Zhengting Gan,  D. Hait,  P. R. Horn,  L. D. Jacobson,  
 I. Kaliman,  J. Kussmann,  A. W. Lange,  Ka Un Lao,  D. S. Levine,  Jie Liu,  
 S. C. McKenzie,  A. F. Morrison,  K. Nanda,  F. Plasser,  D. R. Rehn,  
 M. L. Vidal,  Zhi-Qiang You,  Ying Zhu,  B. Alam,  B. Albrecht,  
 A. Aldossary,  E. Alguire,  J. H. Andersen,  V. Athavale,  D. Barton,  
 K. Begam,  A. Behn,  N. Bellonzi,  Y. A. Bernard,  E. J. Berquist,  
 H. Burton,  A. Carreras,  K. Carter-Fenk,  Romit Chakraborty,  
 Chandrima Chakravarty,  Junhan Chen,  A. D. Chien,  K. D. Closser,  
 V. Cofer-Shabica,  L. Cunha,  S. Dasgupta,  Jia Deng,  M. de Wergifosse,  
 M. Diedenhofen,  Hainam Do,  S. Ehlert,  Po-Tung Fang,  S. Fatehi,  
 Qingguo Feng,  T. Friedhoff,  B. Ganoe,  J. Gayvert,  Qinghui Ge,  
 G. Gidofalvi,  M. Goldey,  J. Gomes,  C. Gonzalez-Espinoza,  S. Gulania,  
 A. Gunina,  J. A. Gyamfi,  M. W. D. Hanson-Heine,  P. H. P. Harbach,  
 A. W. Hauser,  M. F. Herbst,  M. Hernandez Vera,  M. Hodecker,  
 Z. C. Holden,  S. Houck,  Xunkun Huang,  Kerwin Hui,  B. C. Huynh,  
 K. Ikeda,  M. Ivanov,  Hyunjun Ji,  Zuxin Jin,  Hanjie Jiang,  B. Kaduk,  
 S. Kaehler,  R. Kang,  K. Khistyaev,  Jaehoon Kim,  Yongbin Kim,  
 P. Klunzinger,  Z. Koczor-Benda,  Joong Hoon Koh,  D. Kosenkov,  
 Saikiran Kotaru,  L. Koulias,  T. Kowalczyk,  C. M. Krauter,  K. Kue,  
 A. Kunitsa,  T. Kus,  A. Landau,  K. V. Lawler,  D. Lefrancois,  S. Lehtola,  
 Rain Li,  Shaozhi Li,  Yi-Pei Li,  Jiashu Liang,  M. Liebenthal,  
 Hung-Hsuan Lin,  You-Sheng Lin,  Fenglai Liu,  Kuan-Yu Liu,  
 M. Loipersberger,  A. Luenser,  C. Malbon,  A. Manjanath,  P. Manohar,  
 E. Mansoor,  S. F. Manzer,  Shan-Ping Mao,  A. V. Marenich,  T. Markovich,  
 S. Mason,  F. Matz,  S. A. Maurer,  P. F. McLaughlin,  M. F. S. J. Menger,  
 J.-M. Mewes,  S. A. Mewes,  P. Morgante,  Mohammad Mostafanejad,  
 J. W. Mullinax,  K. J. Oosterbaan,  G. Paran,  V. Parravicini,  
 Alexander C. Paul,  Suranjan K. Paul,  F. Pavosevic,  Zheng Pei,  S. Prager,  
 E. I. Proynov,  E. Ramos,  B. Rana,  A. E. Rask,  A. Rettig,  R. M. Richard,  
 F. Rob,  E. Rossomme,  T. Scheele,  M. Scheurer,  M. Schneider,  
 P. E. Schneider,  N. Sergueev,  S. M. Sharada,  Hengyuan Shen,  
 W. Skomorowski,  D. W. Small,  C. J. Stein,  Yingli Su,  Yu-Chuan Su,  
 E. J. Sundstrom,  Zhen Tao,  J. Thirman,  Hung-Yi Tsai,  T. Tsuchimochi,  
 N. M. Tubman,  C. Utku,  S. P. Veccham,  O. Vydrov,  J. Wenzel,  
 Jonathan Wong,  J. Witte,  A. Yamada,  Chou-Hsun Yang,  Kun Yao,  
 S. Yeganeh,  S. R. Yost,  A. Zech,  F. Zeller,  Igor Ying Zhang,  
 Xing Zhang,  Yu Zhang,  D. Zuev,  A. Aspuru-Guzik,  A. T. Bell,  
 N. A. Besley,  K. B. Bravaya,  B. R. Brooks,  D. Casanova,  Jeng-Da Chai,  
 Hsing-Ta Chen,  S. Coriani,  C. J. Cramer,  A. E. DePrince, III,  
 R. A. DiStasio Jr.,  A. Dreuw,  B. D. Dunietz,  T. R. Furlani,  
 W. A. Goddard III,  S. Grimme,  S. Hammes-Schiffer,  T. Head-Gordon,  
 W. J. Hehre,  Chao-Ping Hsu,  T.-C. Jagau,  Yousung Jung,  A. Klamt,  
 Jing Kong,  D. S. Lambrecht,  Xiangyuan Li,  WanZhen Liang,  N. J. Mayhall,  
 C. W. McCurdy,  J. B. Neaton,  T. Neudecker,  C. Ochsenfeld,  
 J. A. Parkhill,  R. Peverati,  V. A. Rassolov,  Haisheng Ren,  Yihan Shao,  
 L. V. Slipchenko,  R. P. Steele,  J. E. Subotnik,  A. J. W. Thom,  
 A. Tkatchenko,  D. G. Truhlar,  T. Van Voorhis,  Fan Wang,  
 T. A. Wesolowski,  K. B. Whaley,  H. L. Woodcock III,  P. M. Zimmerman,  
 S. Faraji,  P. M. W. Gill,  M. Head-Gordon,  J. M. Herbert,  A. I. Krylov

 Contributors to earlier versions of Q-Chem not listed above: 
 R. D. Adamson,  B. Austin,  R. Baer,  J. Baker,  G. J. O. Beran,  
 K. Brandhorst,  S. T. Brown,  E. F. C. Byrd,  Arup K. Chakraborty,  
 G. K. L. Chan,  Chun-Min Chang,  Yunqing Chen,  C.-L. Cheng,  
 Siu Hung Chien,  D. M. Chipman,  D. L. Crittenden,  H. Dachsel,  
 R. J. Doerksen,  A. D. Dutoi,  R. G. Edgar,  J. Fosso-Tande,  
 L. Fusti-Molnar,  D. Ghosh,  A. Ghysels,  A. Golubeva-Zadorozhnaya,  
 J. Gonthier,  M. S. Gordon,  S. R. Gwaltney,  G. Hawkins,  J. E. Herr,  
 A. Heyden,  S. Hirata,  E. G. Hohenstein,  G. Kedziora,  F. J. Keil,  
 C. Kelley,  Jihan Kim,  R. A. King,  R. Z. Khaliullin,  P. P. Korambath,  
 W. Kurlancheek,  A. Laurent,  A. M. Lee,  M. S. Lee,  S. V. Levchenko,  
 Ching Yeh Lin,  D. Liotard,  E. Livshits,  R. C. Lochan,  I. Lotan,  
 L. A. Martinez-Martinez,  P. E. Maslen,  N. Nair,  D. P. O'Neill,  
 D. Neuhauser,  E. Neuscamman,  C. M. Oana,  R. Olivares-Amaya,  R. Olson,  
 T. M. Perrine,  B. Peters,  P. A. Pieniazek,  A. Prociuk,  Y. M. Rhee,  
 J. Ritchie,  M. A. Rohrdanz,  E. Rosta,  N. J. Russ,  H. F. Schaefer III,  
 M. W. Schmidt,  N. E. Schultz,  S. Sharma,  N. Shenvi,  C. D. Sherrill,  
 A. C. Simmonett,  A. Sodt,  T. Stein,  D. Stuck,  K. S. Thanthiriwatte,  
 V. Vanovschi,  L. Vogt,  Tao Wang,  A. Warshel,  M. A. Watson,  
 C. F. Williams,  Q. Wu,  X. Xu,  Jun Yang,  W. Zhang,  Yan Zhao

   Please cite Q-Chem as follows:
  "Software for the frontiers of quantum chemistry:
   An overview of developments in the Q-Chem 5 package"
   J. Chem. Phys. 155, 084801 (2021)
   https://doi.org/10.1063/5.0055522 (open access)

 Q-Chem 6.0.1 for Intel X86 EM64T Linux

 Parts of Q-Chem use Armadillo 9.900.5 (Nocturnal Misbehaviour).
 http://arma.sourceforge.net/

 Q-Chem begins on Mon Mar  6 17:05:57 2023  

 Host: atlas-167
0

     Scratch files written to ./qchem158437//
 Processing $rem in /scratch/abel/SOFTWARE/qchem/config/preferences:
 Processing $rem in /dipc/acebg/.qchemrc:

 Checking the input file for inconsistencies... 	...done.

--------------------------------------------------------------
User input:
--------------------------------------------------------------
$molecule
1 2    
O1
H1 O1 oh
H2 O1 oh H1 hoh

oh = 0.997
hoh = 109.17
$end

$rem
JOBTYPE            sp    
EXCHANGE           HF
CORRELATION        RASCI    
BASIS              6-31G*
UNRESTRICTED       FALSE
RAS_ROOTS          5      
SET_ITER           50     
RAS_ELEC           5      
RAS_ACT            5       
RAS_OCC            2      
CALC_SOC           TRUE   
RAS_SOC_SYM_DENS   TRUE   
$end

--------------------------------------------------------------
 ----------------------------------------------------------------
             Standard Nuclear Orientation (Angstroms)
    I     Atom           X                Y                Z
 ----------------------------------------------------------------
    1      O       0.0000000000     0.0000000000     0.1155512138
    2      H      -0.8125311840    -0.0000000000    -0.4622048550
    3      H       0.8125311840    -0.0000000000    -0.4622048550
 ----------------------------------------------------------------
 Molecular Point Group                 C2v   NOp =  4
 Largest Abelian Subgroup              C2v   NOp =  4
 Nuclear Repulsion Energy =           8.81794733 hartrees
 There are        5 alpha and        4 beta electrons
 Requested basis set is 6-31G(d)
 There are 8 shells and 19 basis functions

 Total QAlloc Memory Limit   2000 MB
 Mega-Array Size       188 MB
 MEM_STATIC part       192 MB


                       Distance Matrix (Angstroms)
             O (  1)   H (  2)
   H (  2)  0.997000
   H (  3)  0.997000  1.625062
 
 A cutoff of  1.0D-09 yielded     36 shell pairs
 There are       217 function pairs
 Smallest overlap matrix eigenvalue = 2.38E-02

 Scale SEOQF with 1.000000e+00/1.000000e+00/1.000000e+00

 Standard Electronic Orientation quadrupole field applied
 Nucleus-field energy     =    -0.0000000001 hartrees
 Guess from superposition of atomic densities
 Warning:  Energy on first SCF cycle will be non-variational
 SAD guess density has 10.000000 electrons

 -----------------------------------------------------------------------
  General SCF calculation program by
  Eric Jon Sundstrom, Paul Horn, Yuezhi Mao, Dmitri Zuev, Alec White,
  David Stuck, Shaama M.S., Shane Yost, Joonho Lee, David Small,
  Daniel Levine, Susi Lehtola, Hugh Burton, Evgeny Epifanovsky,
  Bang C. Huynh
 -----------------------------------------------------------------------
 Hartree-Fock
 Orthonormalizing orbitals
 A restricted open-shell SCF calculation will be
 performed using GDM
 SCF converges when RMS gradient is below 1.0e-05
 ---------------------------------------
  Cycle       Energy        RMS Gradient
 ---------------------------------------
    1     -74.2691948868      6.73e-01   Descent step
    2     -74.5562073374      4.93e-01   Descent step
    3     -74.7293530978      2.93e-01   Descent step
    4     -74.9153077915      9.97e-01   Descent step
    5     -75.3064479982      5.08e-01   Descent step
    6     -75.4477759172      2.86e-01   Dog-leg BFGS step
    7     -75.5191217610      1.14e-01   Normal BFGS step
    8     -75.5352073754      1.78e-02   Normal BFGS step
    9     -75.5354838349      8.44e-03   Normal BFGS step
   10     -75.5354565265      8.71e-03  Line search: overstep
   11     -75.5355368359      2.61e-03   Normal BFGS step
   12     -75.5355453284      5.59e-04   Normal BFGS step
   13     -75.5355457386      2.34e-04   Normal BFGS step
   14     -75.5355457946      3.31e-05   Normal BFGS step
   15     -75.5355457974      5.72e-06  Convergence criterion met
The disked orbital energies are calculated using alpha and beta Focks
 ---------------------------------------
 SCF time:   CPU 0.31s  wall 1.00s 
<S^2> =          0.750000000
 SCF   energy in the final basis set =      -75.5355457974
 Total energy in the final basis set =      -75.5355457974
  
     ##========================================##
     ||                                        ||
     ||              R A S M A N 2             ||
     ||________________________________________||
     ||                                        ||
     ||  Author:                               ||
     ||                                        ||
     ||        David Casanova (2010)           ||
     ||                                        ||
     ##========================================##
  
  ***************************************************
  *  RAS-CI Dimensions:                             *
  *                                                 *
  *  Active Elec.:   5 ( 3, 2)   Active Orb.:   5   *
  *  Doubly Occ. :   2           Doubly Vir.:  12   *
  *  Frozen Occ. :   0           Frozen Vir.:   0   *
  *                                                 *
  *  Total CI configurations:      2200             * 
  *    Active configurations:       100             * 
  *      Hole configurations:       300             * 
  *  Particle configurations:      1800             * 
  *                                                 *
  *   Requested states:        5                    *
  *  Spin multiplicity: Any multiplicity            *
  *                                                 *
  ***************************************************
  
 
Direct CI diagonalization
 ---------------------------------------------------
 Iter    Rts Conv    Rts Left    Ttl Dev     Max Dev
 ---------------------------------------------------
   1         0           5      0.035577    0.009609
   2         0           5      0.013178    0.004573
   3         0           5      0.012525    0.004183
   4         0           5      0.006882    0.002459
   5         0           5      0.005037    0.002811
   6         0           5      0.018803    0.016781
   7         0           5      0.010309    0.008386
   8         0           5      0.005174    0.004258
   9         0           5      0.006165    0.005500
  10         0           5      0.005200    0.004562
  11         0           5      0.002913    0.002625
  12         0           5      0.002807    0.002640
  13         1           4      0.001239    0.001137
  14         2           3      0.000851    0.000771
  15         2           3      0.000958    0.000925
  16         2           3      0.000910    0.000893
  17         2           3      0.000481    0.000471
  18         3           2      0.000283    0.000278
  19         3           2      0.000323    0.000319
  20         4           1      0.000276    0.000274
  21         4           1      0.000155    0.000153
  22         4           1      0.000169    0.000167
  23         4           1      0.000081    0.000079
  24         4           1      0.000026    0.000024
  25         4           1      0.000019    0.000017
  26         4           1      0.000008    0.000006
  27         4           1      0.000004    0.000002
  28         4           1      0.000004    0.000002
  29         5           0      0.000003    0.000001    Roots Converged
 ---------------------------------------------------
   
**************************************************
 RAS-CI total energy for state   1:    -75.647409475587
  Excitation energy (eV) =  0.000000000000
  State symmetry: B2    (C2v      )
  <S^2>      :  0.7500
  Dipole Moment:   -0.0000 X     0.0000 Y     0.8555 Z
  Amplitudes : 
  
 | HOLE  | ALPHA | BETA  | PART  |    AMPLITUDE 
--------------------------------------------------
 |       | 11100 | 10100 |       |     9.8734230177158E-01
--------------------------------------------------
*** Contributions RASCI wfn    Active:  98.25
                                 Hole:   0.22
                                 Part:   1.53

      Mulliken population analysis 
 ---------------------------------------------------
   Atom    Charge (a.u.)   Spin (a.u.)  
 ---------------------------------------------------
   1  O   -0.140596        1.067924 
   2  H    0.570298       -0.033962 
   3  H    0.570298       -0.033962 
 ---------------------------------------------------
   Sum:    1.000000        1.000000 
 ---------------------------------------------------
 
  
**************************************************
 RAS-CI total energy for state   2:    -75.568467148528
  Excitation energy (eV) =  2.148130012702
  State symmetry: A1    (C2v      )
  <S^2>      :  0.7500
  Dipole Moment:    0.0000 X    -0.0000 Y     0.7274 Z
  Trans. Moment:    0.0000 X     0.1203 Y    -0.0000 Z
  Strength   :  0.000762
  Amplitudes : 
  
 | HOLE  | ALPHA | BETA  | PART  |    AMPLITUDE 
--------------------------------------------------
 |       | 11100 | 11000 |       |     9.9183138717424E-01
--------------------------------------------------
*** Contributions RASCI wfn    Active:  98.83
                                 Hole:   0.19
                                 Part:   0.98

      Mulliken population analysis 
 ---------------------------------------------------
   Atom    Charge (a.u.)   Spin (a.u.)  
 ---------------------------------------------------
   1  O   -0.199349        0.955372 
   2  H    0.599674        0.022314 
   3  H    0.599674        0.022314 
 ---------------------------------------------------
   Sum:    1.000000        1.000000 
 ---------------------------------------------------
 
  
**************************************************
 RAS-CI total energy for state   3:    -75.395431885999
  Excitation energy (eV) =  6.856659068600
  State symmetry: B1    (C2v      )
  <S^2>      :  0.7500
  Dipole Moment:   -0.0000 X     0.0000 Y     1.0560 Z
  Trans. Moment:    0.0000 X    -0.0000 Y     0.0000 Z
  Strength   :  0.000000
  Amplitudes : 
  
 | HOLE  | ALPHA | BETA  | PART  |    AMPLITUDE 
--------------------------------------------------
 |       | 11100 | 01100 |       |     9.8430573485624E-01
--------------------------------------------------
*** Contributions RASCI wfn    Active:  98.02
                                 Hole:   0.24
                                 Part:   1.74

      Mulliken population analysis 
 ---------------------------------------------------
   Atom    Charge (a.u.)   Spin (a.u.)  
 ---------------------------------------------------
   1  O   -0.338332        0.694083 
   2  H    0.669166        0.152958 
   3  H    0.669166        0.152958 
 ---------------------------------------------------
   Sum:    1.000000        1.000000 
 ---------------------------------------------------
 
  
**************************************************
 RAS-CI total energy for state   4:    -75.151792921456
  Excitation energy (eV) = 13.486412605134
  State symmetry: B2    (C2v      )
  <S^2>      :  0.7500
  Dipole Moment:   -0.0000 X     0.0000 Y    -0.2708 Z
  Trans. Moment:   -0.0000 X    -0.0000 Y    -0.4212 Z
  Strength   :  0.058620
  Amplitudes : 
  
 | HOLE  | ALPHA | BETA  | PART  |    AMPLITUDE 
--------------------------------------------------
 |       | 11100 | 10010 |       |     7.8054952147097E-01
 |       | 11010 | 10100 |       |     3.1774597136784E-01
 |       | 10110 | 11000 |       |    -4.6280355010323E-01
--------------------------------------------------
*** Contributions RASCI wfn    Active:  95.39
                                 Hole:   0.62
                                 Part:   3.99

      Mulliken population analysis 
 ---------------------------------------------------
   Atom    Charge (a.u.)   Spin (a.u.)  
 ---------------------------------------------------
   1  O    0.608506        1.344163 
   2  H    0.195747       -0.172081 
   3  H    0.195747       -0.172081 
 ---------------------------------------------------
   Sum:    1.000000        1.000000 
 ---------------------------------------------------
 
  
**************************************************
 RAS-CI total energy for state   5:    -75.139431908313
  Excitation energy (eV) = 13.822772886230
  State symmetry: A1    (C2v      )
  <S^2>      :  0.7500
  Dipole Moment:   -0.0000 X     0.0000 Y    -0.1219 Z
  Trans. Moment:   -0.0000 X     0.2044 Y    -0.0000 Z
  Strength   :  0.014150
  Amplitudes : 
  
 | HOLE  | ALPHA | BETA  | PART  |    AMPLITUDE 
--------------------------------------------------
 |       | 11010 | 11000 |       |    -2.3374043163135E-01
 |       | 10110 | 10100 |       |     9.2656211860652E-01
 |   2   | 11100 | 11100 |       |    -1.2302599765497E-01
 |       | 10100 | 10100 |   9   |    -1.3164865882799E-01
--------------------------------------------------
*** Contributions RASCI wfn    Active:  93.41
                                 Hole:   1.78
                                 Part:   4.81

      Mulliken population analysis 
 ---------------------------------------------------
   Atom    Charge (a.u.)   Spin (a.u.)  
 ---------------------------------------------------
   1  O    0.617112       -0.113740 
   2  H    0.191444        0.556870 
   3  H    0.191444        0.556870 
 ---------------------------------------------------
   Sum:    1.000000        1.000000 
 ---------------------------------------------------
 
  
--------------------------------------------------
 Interstate Transition Properties
--------------------------------------------------
State A: Root  1
State B: Root  2
  
Angular momentum components
< B | Lx | A > =    -0.959834394i
< B | Ly | A > =     0.000000000i
< B | Lz | A > =     0.000000000i
  
Norm of one-particle transition density matrix
||gamma^AB||_total       =  0.993031
||gamma^AB||_symmetrized =  0.703544
||gamma^AB||_anti-symm   =  0.700812
  
Spin-orbit couplings
 Using HF (reference) density for the 2-elec mean-field SOC contribution
KET: S',Sz' (Root   1) =  0.500 0.500
BRA: S ,Sz  (Root   2) =  0.500 0.500
 1e Reduced matrix elements (cm-1)
<S|| Hso(L-) ||S'> =    -0.0000000000   119.1394641937
<S|| Hso(L0) ||S'> =     0.0000000000     0.0000000000
<S|| Hso(L+) ||S'> =    -0.0000000000  -119.1394641937
 1-elec SOC matrix (cm-1): < B(S,Sz) | Hso(1e) | A(S',Sz') >
                     |Sz'=-0.50>              |Sz'= 0.50>
 <Sz=-0.50|    0.000000    0.000000i     0.000000   97.276965i
 <Sz= 0.50|   -0.000000   97.276965i    -0.000000   -0.000000i
1-elec SOCC =   137.570403447 cm-1
 Averagin spin alpha/beta reference densities
 2e-SOMF Reduced matrix elements (cm-1)
<S|| Hso(L-) ||S'> =     0.0000000000   -44.8216924356
<S|| Hso(L0) ||S'> =     0.0000000000    -0.0000000000
<S|| Hso(L+) ||S'> =     0.0000000000    44.8216924356
 2-elec mean-field SOC matrix (cm-1): < B(S,Sz) | Hso(2e-mf) | A(S',Sz') >
                     |Sz'=-0.50>              |Sz'= 0.50>
 <Sz=-0.50|    0.000000   -0.000000i    -0.000000  -36.596759i
 <Sz= 0.50|    0.000000  -36.596759i     0.000000    0.000000i
 Total mean-field SOC matrix (cm-1): < B(S,Sz) | Hsomf | A(S',Sz') >
                     |Sz'=-0.50>              |Sz'= 0.50>
 <Sz=-0.50|    0.000000    0.000000i     0.000000   60.680207i
 <Sz= 0.50|   -0.000000   60.680207i    -0.000000   -0.000000i
Mean-Field SOCC =    85.814771060 cm-1
   
**************************************************
State A: Root  1
State B: Root  3
  
Angular momentum components
< B | Lx | A > =     0.000000000i
< B | Ly | A > =     0.000000000i
< B | Lz | A > =     0.957037761i
  
Norm of one-particle transition density matrix
||gamma^AB||_total       =  0.988754
||gamma^AB||_symmetrized =  0.701112
||gamma^AB||_anti-symm   =  0.697191
  
Spin-orbit couplings
 Using HF (reference) density for the 2-elec mean-field SOC contribution
KET: S',Sz' (Root   1) =  0.500 0.500
BRA: S ,Sz  (Root   3) =  0.500 0.500
 1e Reduced matrix elements (cm-1)
<S|| Hso(L-) ||S'> =    -0.0000000000    -0.0000000000
<S|| Hso(L0) ||S'> =     0.0000000000   149.9687287901
<S|| Hso(L+) ||S'> =    -0.0000000000     0.0000000000
 1-elec SOC matrix (cm-1): < B(S,Sz) | Hso(1e) | A(S',Sz') >
                     |Sz'=-0.50>              |Sz'= 0.50>
 <Sz=-0.50|    0.000000   86.584486i     0.000000   -0.000000i
 <Sz= 0.50|   -0.000000   -0.000000i    -0.000000  -86.584486i
1-elec SOCC =   122.448954303 cm-1
 2e-SOMF Reduced matrix elements (cm-1)
<S|| Hso(L-) ||S'> =     0.0000000000     0.0000000000
<S|| Hso(L0) ||S'> =     0.0000000000   -54.2803265612
<S|| Hso(L+) ||S'> =     0.0000000000    -0.0000000000
 2-elec mean-field SOC matrix (cm-1): < B(S,Sz) | Hso(2e-mf) | A(S',Sz') >
                     |Sz'=-0.50>              |Sz'= 0.50>
 <Sz=-0.50|    0.000000  -31.338761i    -0.000000    0.000000i
 <Sz= 0.50|    0.000000    0.000000i     0.000000   31.338761i
 Total mean-field SOC matrix (cm-1): < B(S,Sz) | Hsomf | A(S',Sz') >
                     |Sz'=-0.50>              |Sz'= 0.50>
 <Sz=-0.50|    0.000000   55.245725i     0.000000   -0.000000i
 <Sz= 0.50|   -0.000000   -0.000000i    -0.000000  -55.245725i
Mean-Field SOCC =    78.129253254 cm-1
   
**************************************************
State A: Root  1
State B: Root  4
  
Angular momentum components
< B | Lx | A > =    -0.000000000i
< B | Ly | A > =    -0.000000000i
< B | Lz | A > =    -0.000000000i
  
Norm of one-particle transition density matrix
||gamma^AB||_total       =  0.851376
||gamma^AB||_symmetrized =  0.597857
||gamma^AB||_anti-symm   =  0.606141
  
Spin-orbit couplings
 Using HF (reference) density for the 2-elec mean-field SOC contribution
KET: S',Sz' (Root   1) =  0.500 0.500
BRA: S ,Sz  (Root   4) =  0.500 0.500
 1e Reduced matrix elements (cm-1)
<S|| Hso(L-) ||S'> =     0.0000000000    -0.0000000000
<S|| Hso(L0) ||S'> =     0.0000000000    -0.0000000000
<S|| Hso(L+) ||S'> =     0.0000000000     0.0000000000
 1-elec SOC matrix (cm-1): < B(S,Sz) | Hso(1e) | A(S',Sz') >
                     |Sz'=-0.50>              |Sz'= 0.50>
 <Sz=-0.50|    0.000000   -0.000000i    -0.000000   -0.000000i
 <Sz= 0.50|    0.000000   -0.000000i     0.000000    0.000000i
1-elec SOCC =     0.000000000 cm-1
 2e-SOMF Reduced matrix elements (cm-1)
<S|| Hso(L-) ||S'> =    -0.0000000000     0.0000000000
<S|| Hso(L0) ||S'> =     0.0000000000     0.0000000000
<S|| Hso(L+) ||S'> =    -0.0000000000    -0.0000000000
 2-elec mean-field SOC matrix (cm-1): < B(S,Sz) | Hso(2e-mf) | A(S',Sz') >
                     |Sz'=-0.50>              |Sz'= 0.50>
 <Sz=-0.50|    0.000000    0.000000i     0.000000    0.000000i
 <Sz= 0.50|   -0.000000    0.000000i    -0.000000   -0.000000i
 Total mean-field SOC matrix (cm-1): < B(S,Sz) | Hsomf | A(S',Sz') >
                     |Sz'=-0.50>              |Sz'= 0.50>
 <Sz=-0.50|    0.000000   -0.000000i    -0.000000   -0.000000i
 <Sz= 0.50|    0.000000   -0.000000i     0.000000    0.000000i
Mean-Field SOCC =     0.000000000 cm-1
   
**************************************************
State A: Root  1
State B: Root  5
  
Angular momentum components
< B | Lx | A > =     0.145188397i
< B | Ly | A > =     0.000000000i
< B | Lz | A > =    -0.000000000i
  
Norm of one-particle transition density matrix
||gamma^AB||_total       =  0.940393
||gamma^AB||_symmetrized =  0.669271
||gamma^AB||_anti-symm   =  0.660617
  
Spin-orbit couplings
 Using HF (reference) density for the 2-elec mean-field SOC contribution
KET: S',Sz' (Root   1) =  0.500 0.500
BRA: S ,Sz  (Root   5) =  0.500 0.500
 1e Reduced matrix elements (cm-1)
<S|| Hso(L-) ||S'> =    -0.0000000000    56.2806464971
<S|| Hso(L0) ||S'> =     0.0000000000     0.0000000000
<S|| Hso(L+) ||S'> =    -0.0000000000   -56.2806464971
 1-elec SOC matrix (cm-1): < B(S,Sz) | Hso(1e) | A(S',Sz') >
                     |Sz'=-0.50>              |Sz'= 0.50>
 <Sz=-0.50|    0.000000    0.000000i     0.000000   45.952955i
 <Sz= 0.50|   -0.000000   45.952955i    -0.000000   -0.000000i
1-elec SOCC =    64.987292811 cm-1
 2e-SOMF Reduced matrix elements (cm-1)
<S|| Hso(L-) ||S'> =     0.0000000000   -19.4890207795
<S|| Hso(L0) ||S'> =     0.0000000000    -0.0000000000
<S|| Hso(L+) ||S'> =     0.0000000000    19.4890207795
 2-elec mean-field SOC matrix (cm-1): < B(S,Sz) | Hso(2e-mf) | A(S',Sz') >
                     |Sz'=-0.50>              |Sz'= 0.50>
 <Sz=-0.50|    0.000000   -0.000000i    -0.000000  -15.912719i
 <Sz= 0.50|    0.000000  -15.912719i     0.000000    0.000000i
 Total mean-field SOC matrix (cm-1): < B(S,Sz) | Hsomf | A(S',Sz') >
                     |Sz'=-0.50>              |Sz'= 0.50>
 <Sz=-0.50|    0.000000    0.000000i     0.000000   30.040237i
 <Sz= 0.50|   -0.000000   30.040237i    -0.000000   -0.000000i
Mean-Field SOCC =    42.483310024 cm-1
   
**************************************************
State A: Root  2
State B: Root  1
  
Angular momentum components
< B | Lx | A > =     0.959834394i
< B | Ly | A > =    -0.000000000i
< B | Lz | A > =    -0.000000000i
  
Norm of one-particle transition density matrix
||gamma^AB||_total       =  0.993031
||gamma^AB||_symmetrized =  0.703544
||gamma^AB||_anti-symm   =  0.700812
  
Spin-orbit couplings
 Using HF (reference) density for the 2-elec mean-field SOC contribution
KET: S',Sz' (Root   2) =  0.500 0.500
BRA: S ,Sz  (Root   1) =  0.500 0.500
 1e Reduced matrix elements (cm-1)
<S|| Hso(L-) ||S'> =     0.0000000000  -119.1394641937
<S|| Hso(L0) ||S'> =     0.0000000000    -0.0000000000
<S|| Hso(L+) ||S'> =     0.0000000000   119.1394641937
 1-elec SOC matrix (cm-1): < B(S,Sz) | Hso(1e) | A(S',Sz') >
                     |Sz'=-0.50>              |Sz'= 0.50>
 <Sz=-0.50|    0.000000   -0.000000i    -0.000000  -97.276965i
 <Sz= 0.50|    0.000000  -97.276965i     0.000000    0.000000i
1-elec SOCC =   137.570403447 cm-1
 2e-SOMF Reduced matrix elements (cm-1)
<S|| Hso(L-) ||S'> =    -0.0000000000    44.8216924356
<S|| Hso(L0) ||S'> =     0.0000000000     0.0000000000
<S|| Hso(L+) ||S'> =    -0.0000000000   -44.8216924356
 2-elec mean-field SOC matrix (cm-1): < B(S,Sz) | Hso(2e-mf) | A(S',Sz') >
                     |Sz'=-0.50>              |Sz'= 0.50>
 <Sz=-0.50|    0.000000    0.000000i     0.000000   36.596759i
 <Sz= 0.50|   -0.000000   36.596759i    -0.000000   -0.000000i
 Total mean-field SOC matrix (cm-1): < B(S,Sz) | Hsomf | A(S',Sz') >
                     |Sz'=-0.50>              |Sz'= 0.50>
 <Sz=-0.50|    0.000000   -0.000000i    -0.000000  -60.680207i
 <Sz= 0.50|    0.000000  -60.680207i     0.000000    0.000000i
Mean-Field SOCC =    85.814771060 cm-1
   
**************************************************
State A: Root  2
State B: Root  3
  
Angular momentum components
< B | Lx | A > =     0.000000000i
< B | Ly | A > =     0.903734271i
< B | Lz | A > =    -0.000000000i
  
Norm of one-particle transition density matrix
||gamma^AB||_total       =  0.985360
||gamma^AB||_symmetrized =  0.698489
||gamma^AB||_anti-symm   =  0.695016
  
Spin-orbit couplings
 Using HF (reference) density for the 2-elec mean-field SOC contribution
KET: S',Sz' (Root   2) =  0.500 0.500
BRA: S ,Sz  (Root   3) =  0.500 0.500
 1e Reduced matrix elements (cm-1)
<S|| Hso(L-) ||S'> =   -95.2349227548    -0.0000000000
<S|| Hso(L0) ||S'> =     0.0000000000    -0.0000000000
<S|| Hso(L+) ||S'> =   -95.2349227548     0.0000000000
 1-elec SOC matrix (cm-1): < B(S,Sz) | Hso(1e) | A(S',Sz') >
                     |Sz'=-0.50>              |Sz'= 0.50>
 <Sz=-0.50|    0.000000   -0.000000i    77.758989   -0.000000i
 <Sz= 0.50|  -77.758989   -0.000000i    -0.000000    0.000000i
1-elec SOCC =   109.967816578 cm-1
 2e-SOMF Reduced matrix elements (cm-1)
<S|| Hso(L-) ||S'> =    37.6721606148     0.0000000000
<S|| Hso(L0) ||S'> =     0.0000000000     0.0000000000
<S|| Hso(L+) ||S'> =    37.6721606148    -0.0000000000
 2-elec mean-field SOC matrix (cm-1): < B(S,Sz) | Hso(2e-mf) | A(S',Sz') >
                     |Sz'=-0.50>              |Sz'= 0.50>
 <Sz=-0.50|    0.000000    0.000000i   -30.759190    0.000000i
 <Sz= 0.50|   30.759190    0.000000i     0.000000   -0.000000i
 Total mean-field SOC matrix (cm-1): < B(S,Sz) | Hsomf | A(S',Sz') >
                     |Sz'=-0.50>              |Sz'= 0.50>
 <Sz=-0.50|    0.000000   -0.000000i    46.999798   -0.000000i
 <Sz= 0.50|  -46.999798   -0.000000i    -0.000000    0.000000i
Mean-Field SOCC =    66.467752434 cm-1
   
**************************************************
State A: Root  2
State B: Root  4
  
Angular momentum components
< B | Lx | A > =    -0.179293503i
< B | Ly | A > =    -0.000000000i
< B | Lz | A > =     0.000000000i
  
Norm of one-particle transition density matrix
||gamma^AB||_total       =  0.912925
||gamma^AB||_symmetrized =  0.637158
||gamma^AB||_anti-symm   =  0.653806
  
Spin-orbit couplings
 Using HF (reference) density for the 2-elec mean-field SOC contribution
KET: S',Sz' (Root   2) =  0.500 0.500
BRA: S ,Sz  (Root   4) =  0.500 0.500
 1e Reduced matrix elements (cm-1)
<S|| Hso(L-) ||S'> =    -0.0000000000    17.2065206668
<S|| Hso(L0) ||S'> =     0.0000000000     0.0000000000
<S|| Hso(L+) ||S'> =    -0.0000000000   -17.2065206668
 1-elec SOC matrix (cm-1): < B(S,Sz) | Hso(1e) | A(S',Sz') >
                     |Sz'=-0.50>              |Sz'= 0.50>
 <Sz=-0.50|    0.000000    0.000000i     0.000000   14.049065i
 <Sz= 0.50|   -0.000000   14.049065i    -0.000000   -0.000000i
1-elec SOCC =    19.868378678 cm-1
 2e-SOMF Reduced matrix elements (cm-1)
<S|| Hso(L-) ||S'> =     0.0000000000    -6.2082044795
<S|| Hso(L0) ||S'> =     0.0000000000    -0.0000000000
<S|| Hso(L+) ||S'> =     0.0000000000     6.2082044795
 2-elec mean-field SOC matrix (cm-1): < B(S,Sz) | Hso(2e-mf) | A(S',Sz') >
                     |Sz'=-0.50>              |Sz'= 0.50>
 <Sz=-0.50|    0.000000   -0.000000i    -0.000000   -5.068978i
 <Sz= 0.50|    0.000000   -5.068978i     0.000000    0.000000i
 Total mean-field SOC matrix (cm-1): < B(S,Sz) | Hsomf | A(S',Sz') >
                     |Sz'=-0.50>              |Sz'= 0.50>
 <Sz=-0.50|    0.000000    0.000000i     0.000000    8.980088i
 <Sz= 0.50|   -0.000000    8.980088i    -0.000000   -0.000000i
Mean-Field SOCC =    12.699761623 cm-1
   
**************************************************
State A: Root  2
State B: Root  5
  
Angular momentum components
< B | Lx | A > =    -0.000000000i
< B | Ly | A > =     0.000000000i
< B | Lz | A > =    -0.000000000i
  
Norm of one-particle transition density matrix
||gamma^AB||_total       =  0.269257
||gamma^AB||_symmetrized =  0.190953
||gamma^AB||_anti-symm   =  0.189833
  
Spin-orbit couplings
 Using HF (reference) density for the 2-elec mean-field SOC contribution
KET: S',Sz' (Root   2) =  0.500 0.500
BRA: S ,Sz  (Root   5) =  0.500 0.500
 1e Reduced matrix elements (cm-1)
<S|| Hso(L-) ||S'> =     0.0000000000     0.0000000000
<S|| Hso(L0) ||S'> =     0.0000000000    -0.0000000000
<S|| Hso(L+) ||S'> =     0.0000000000    -0.0000000000
 1-elec SOC matrix (cm-1): < B(S,Sz) | Hso(1e) | A(S',Sz') >
                     |Sz'=-0.50>              |Sz'= 0.50>
 <Sz=-0.50|    0.000000   -0.000000i    -0.000000    0.000000i
 <Sz= 0.50|    0.000000    0.000000i     0.000000    0.000000i
1-elec SOCC =     0.000000000 cm-1
 2e-SOMF Reduced matrix elements (cm-1)
<S|| Hso(L-) ||S'> =    -0.0000000000    -0.0000000000
<S|| Hso(L0) ||S'> =     0.0000000000     0.0000000000
<S|| Hso(L+) ||S'> =    -0.0000000000     0.0000000000
 2-elec mean-field SOC matrix (cm-1): < B(S,Sz) | Hso(2e-mf) | A(S',Sz') >
                     |Sz'=-0.50>              |Sz'= 0.50>
 <Sz=-0.50|    0.000000    0.000000i     0.000000   -0.000000i
 <Sz= 0.50|   -0.000000   -0.000000i    -0.000000   -0.000000i
 Total mean-field SOC matrix (cm-1): < B(S,Sz) | Hsomf | A(S',Sz') >
                     |Sz'=-0.50>              |Sz'= 0.50>
 <Sz=-0.50|    0.000000   -0.000000i    -0.000000    0.000000i
 <Sz= 0.50|    0.000000    0.000000i     0.000000    0.000000i
Mean-Field SOCC =     0.000000000 cm-1
   
**************************************************
State A: Root  3
State B: Root  1
  
Angular momentum components
< B | Lx | A > =    -0.000000000i
< B | Ly | A > =    -0.000000000i
< B | Lz | A > =    -0.957037761i
  
Norm of one-particle transition density matrix
||gamma^AB||_total       =  0.988754
||gamma^AB||_symmetrized =  0.701112
||gamma^AB||_anti-symm   =  0.697191
  
Spin-orbit couplings
 Using HF (reference) density for the 2-elec mean-field SOC contribution
KET: S',Sz' (Root   3) =  0.500 0.500
BRA: S ,Sz  (Root   1) =  0.500 0.500
 1e Reduced matrix elements (cm-1)
<S|| Hso(L-) ||S'> =     0.0000000000     0.0000000000
<S|| Hso(L0) ||S'> =     0.0000000000  -149.9687287901
<S|| Hso(L+) ||S'> =     0.0000000000    -0.0000000000
 1-elec SOC matrix (cm-1): < B(S,Sz) | Hso(1e) | A(S',Sz') >
                     |Sz'=-0.50>              |Sz'= 0.50>
 <Sz=-0.50|    0.000000  -86.584486i    -0.000000    0.000000i
 <Sz= 0.50|    0.000000    0.000000i     0.000000   86.584486i
1-elec SOCC =   122.448954303 cm-1
 2e-SOMF Reduced matrix elements (cm-1)
<S|| Hso(L-) ||S'> =    -0.0000000000    -0.0000000000
<S|| Hso(L0) ||S'> =     0.0000000000    54.2803265612
<S|| Hso(L+) ||S'> =    -0.0000000000     0.0000000000
 2-elec mean-field SOC matrix (cm-1): < B(S,Sz) | Hso(2e-mf) | A(S',Sz') >
                     |Sz'=-0.50>              |Sz'= 0.50>
 <Sz=-0.50|    0.000000   31.338761i     0.000000   -0.000000i
 <Sz= 0.50|   -0.000000   -0.000000i    -0.000000  -31.338761i
 Total mean-field SOC matrix (cm-1): < B(S,Sz) | Hsomf | A(S',Sz') >
                     |Sz'=-0.50>              |Sz'= 0.50>
 <Sz=-0.50|    0.000000  -55.245725i    -0.000000    0.000000i
 <Sz= 0.50|    0.000000    0.000000i     0.000000   55.245725i
Mean-Field SOCC =    78.129253254 cm-1
   
**************************************************
State A: Root  3
State B: Root  2
  
Angular momentum components
< B | Lx | A > =    -0.000000000i
< B | Ly | A > =    -0.903734271i
< B | Lz | A > =     0.000000000i
  
Norm of one-particle transition density matrix
||gamma^AB||_total       =  0.985360
||gamma^AB||_symmetrized =  0.698489
||gamma^AB||_anti-symm   =  0.695016
  
Spin-orbit couplings
 Using HF (reference) density for the 2-elec mean-field SOC contribution
KET: S',Sz' (Root   3) =  0.500 0.500
BRA: S ,Sz  (Root   2) =  0.500 0.500
 1e Reduced matrix elements (cm-1)
<S|| Hso(L-) ||S'> =    95.2349227548     0.0000000000
<S|| Hso(L0) ||S'> =     0.0000000000     0.0000000000
<S|| Hso(L+) ||S'> =    95.2349227548    -0.0000000000
 1-elec SOC matrix (cm-1): < B(S,Sz) | Hso(1e) | A(S',Sz') >
                     |Sz'=-0.50>              |Sz'= 0.50>
 <Sz=-0.50|    0.000000    0.000000i   -77.758989    0.000000i
 <Sz= 0.50|   77.758989    0.000000i     0.000000   -0.000000i
1-elec SOCC =   109.967816578 cm-1
 2e-SOMF Reduced matrix elements (cm-1)
<S|| Hso(L-) ||S'> =   -37.6721606148    -0.0000000000
<S|| Hso(L0) ||S'> =     0.0000000000    -0.0000000000
<S|| Hso(L+) ||S'> =   -37.6721606148     0.0000000000
 2-elec mean-field SOC matrix (cm-1): < B(S,Sz) | Hso(2e-mf) | A(S',Sz') >
                     |Sz'=-0.50>              |Sz'= 0.50>
 <Sz=-0.50|    0.000000   -0.000000i    30.759190   -0.000000i
 <Sz= 0.50|  -30.759190   -0.000000i    -0.000000    0.000000i
 Total mean-field SOC matrix (cm-1): < B(S,Sz) | Hsomf | A(S',Sz') >
                     |Sz'=-0.50>              |Sz'= 0.50>
 <Sz=-0.50|    0.000000    0.000000i   -46.999798    0.000000i
 <Sz= 0.50|   46.999798    0.000000i     0.000000   -0.000000i
Mean-Field SOCC =    66.467752434 cm-1
   
**************************************************
State A: Root  3
State B: Root  4
  
Angular momentum components
< B | Lx | A > =     0.000000000i
< B | Ly | A > =    -0.000000000i
< B | Lz | A > =    -0.000452860i
  
Norm of one-particle transition density matrix
||gamma^AB||_total       =  0.061807
||gamma^AB||_symmetrized =  0.043122
||gamma^AB||_anti-symm   =  0.044279
  
Spin-orbit couplings
 Using HF (reference) density for the 2-elec mean-field SOC contribution
KET: S',Sz' (Root   3) =  0.500 0.500
BRA: S ,Sz  (Root   4) =  0.500 0.500
 1e Reduced matrix elements (cm-1)
<S|| Hso(L-) ||S'> =    -0.0000000000    -0.0000000000
<S|| Hso(L0) ||S'> =     0.0000000000   -19.4779810768
<S|| Hso(L+) ||S'> =    -0.0000000000     0.0000000000
 1-elec SOC matrix (cm-1): < B(S,Sz) | Hso(1e) | A(S',Sz') >
                     |Sz'=-0.50>              |Sz'= 0.50>
 <Sz=-0.50|    0.000000  -11.245618i     0.000000   -0.000000i
 <Sz= 0.50|   -0.000000   -0.000000i    -0.000000   11.245618i
1-elec SOCC =    15.903704953 cm-1
 2e-SOMF Reduced matrix elements (cm-1)
<S|| Hso(L-) ||S'> =     0.0000000000     0.0000000000
<S|| Hso(L0) ||S'> =     0.0000000000     6.5257045627
<S|| Hso(L+) ||S'> =     0.0000000000    -0.0000000000
 2-elec mean-field SOC matrix (cm-1): < B(S,Sz) | Hso(2e-mf) | A(S',Sz') >
                     |Sz'=-0.50>              |Sz'= 0.50>
 <Sz=-0.50|    0.000000    3.767617i    -0.000000    0.000000i
 <Sz= 0.50|    0.000000    0.000000i     0.000000   -3.767617i
 Total mean-field SOC matrix (cm-1): < B(S,Sz) | Hsomf | A(S',Sz') >
                     |Sz'=-0.50>              |Sz'= 0.50>
 <Sz=-0.50|    0.000000   -7.478000i     0.000000   -0.000000i
 <Sz= 0.50|   -0.000000   -0.000000i    -0.000000    7.478000i
Mean-Field SOCC =    10.575489489 cm-1
   
**************************************************
State A: Root  3
State B: Root  5
  
Angular momentum components
< B | Lx | A > =    -0.000000000i
< B | Ly | A > =     0.045176879i
< B | Lz | A > =    -0.000000000i
  
Norm of one-particle transition density matrix
||gamma^AB||_total       =  0.150855
||gamma^AB||_symmetrized =  0.109286
||gamma^AB||_anti-symm   =  0.103991
  
Spin-orbit couplings
 Using HF (reference) density for the 2-elec mean-field SOC contribution
KET: S',Sz' (Root   3) =  0.500 0.500
BRA: S ,Sz  (Root   5) =  0.500 0.500
 1e Reduced matrix elements (cm-1)
<S|| Hso(L-) ||S'> =    -3.4646805183    -0.0000000000
<S|| Hso(L0) ||S'> =     0.0000000000    -0.0000000000
<S|| Hso(L+) ||S'> =    -3.4646805183     0.0000000000
 1-elec SOC matrix (cm-1): < B(S,Sz) | Hso(1e) | A(S',Sz') >
                     |Sz'=-0.50>              |Sz'= 0.50>
 <Sz=-0.50|    0.000000   -0.000000i     2.828900   -0.000000i
 <Sz= 0.50|   -2.828900   -0.000000i    -0.000000    0.000000i
1-elec SOCC =     4.000668460 cm-1
 2e-SOMF Reduced matrix elements (cm-1)
<S|| Hso(L-) ||S'> =     1.4154896959     0.0000000000
<S|| Hso(L0) ||S'> =     0.0000000000     0.0000000000
<S|| Hso(L+) ||S'> =     1.4154896959    -0.0000000000
 2-elec mean-field SOC matrix (cm-1): < B(S,Sz) | Hso(2e-mf) | A(S',Sz') >
                     |Sz'=-0.50>              |Sz'= 0.50>
 <Sz=-0.50|    0.000000    0.000000i    -1.155742    0.000000i
 <Sz= 0.50|    1.155742    0.000000i     0.000000   -0.000000i
 Total mean-field SOC matrix (cm-1): < B(S,Sz) | Hsomf | A(S',Sz') >
                     |Sz'=-0.50>              |Sz'= 0.50>
 <Sz=-0.50|    0.000000   -0.000000i     1.673157   -0.000000i
 <Sz= 0.50|   -1.673157   -0.000000i    -0.000000    0.000000i
Mean-Field SOCC =     2.366201746 cm-1
   
**************************************************
State A: Root  4
State B: Root  1
  
Angular momentum components
< B | Lx | A > =     0.000000000i
< B | Ly | A > =     0.000000000i
< B | Lz | A > =     0.000000000i
  
Norm of one-particle transition density matrix
||gamma^AB||_total       =  0.851376
||gamma^AB||_symmetrized =  0.597857
||gamma^AB||_anti-symm   =  0.606141
  
Spin-orbit couplings
 Using HF (reference) density for the 2-elec mean-field SOC contribution
KET: S',Sz' (Root   4) =  0.500 0.500
BRA: S ,Sz  (Root   1) =  0.500 0.500
 1e Reduced matrix elements (cm-1)
<S|| Hso(L-) ||S'> =    -0.0000000000     0.0000000000
<S|| Hso(L0) ||S'> =     0.0000000000     0.0000000000
<S|| Hso(L+) ||S'> =    -0.0000000000    -0.0000000000
 1-elec SOC matrix (cm-1): < B(S,Sz) | Hso(1e) | A(S',Sz') >
                     |Sz'=-0.50>              |Sz'= 0.50>
 <Sz=-0.50|    0.000000    0.000000i     0.000000    0.000000i
 <Sz= 0.50|   -0.000000    0.000000i    -0.000000   -0.000000i
1-elec SOCC =     0.000000000 cm-1
 2e-SOMF Reduced matrix elements (cm-1)
<S|| Hso(L-) ||S'> =     0.0000000000    -0.0000000000
<S|| Hso(L0) ||S'> =     0.0000000000    -0.0000000000
<S|| Hso(L+) ||S'> =     0.0000000000     0.0000000000
 2-elec mean-field SOC matrix (cm-1): < B(S,Sz) | Hso(2e-mf) | A(S',Sz') >
                     |Sz'=-0.50>              |Sz'= 0.50>
 <Sz=-0.50|    0.000000   -0.000000i    -0.000000   -0.000000i
 <Sz= 0.50|    0.000000   -0.000000i     0.000000    0.000000i
 Total mean-field SOC matrix (cm-1): < B(S,Sz) | Hsomf | A(S',Sz') >
                     |Sz'=-0.50>              |Sz'= 0.50>
 <Sz=-0.50|    0.000000    0.000000i     0.000000    0.000000i
 <Sz= 0.50|   -0.000000    0.000000i    -0.000000   -0.000000i
Mean-Field SOCC =     0.000000000 cm-1
   
**************************************************
State A: Root  4
State B: Root  2
  
Angular momentum components
< B | Lx | A > =     0.179293503i
< B | Ly | A > =     0.000000000i
< B | Lz | A > =    -0.000000000i
  
Norm of one-particle transition density matrix
||gamma^AB||_total       =  0.912925
||gamma^AB||_symmetrized =  0.637158
||gamma^AB||_anti-symm   =  0.653806
  
Spin-orbit couplings
 Using HF (reference) density for the 2-elec mean-field SOC contribution
KET: S',Sz' (Root   4) =  0.500 0.500
BRA: S ,Sz  (Root   2) =  0.500 0.500
 1e Reduced matrix elements (cm-1)
<S|| Hso(L-) ||S'> =     0.0000000000   -17.2065206668
<S|| Hso(L0) ||S'> =     0.0000000000    -0.0000000000
<S|| Hso(L+) ||S'> =     0.0000000000    17.2065206668
 1-elec SOC matrix (cm-1): < B(S,Sz) | Hso(1e) | A(S',Sz') >
                     |Sz'=-0.50>              |Sz'= 0.50>
 <Sz=-0.50|    0.000000   -0.000000i    -0.000000  -14.049065i
 <Sz= 0.50|    0.000000  -14.049065i     0.000000    0.000000i
1-elec SOCC =    19.868378678 cm-1
 2e-SOMF Reduced matrix elements (cm-1)
<S|| Hso(L-) ||S'> =    -0.0000000000     6.2082044795
<S|| Hso(L0) ||S'> =     0.0000000000     0.0000000000
<S|| Hso(L+) ||S'> =    -0.0000000000    -6.2082044795
 2-elec mean-field SOC matrix (cm-1): < B(S,Sz) | Hso(2e-mf) | A(S',Sz') >
                     |Sz'=-0.50>              |Sz'= 0.50>
 <Sz=-0.50|    0.000000    0.000000i     0.000000    5.068978i
 <Sz= 0.50|   -0.000000    5.068978i    -0.000000   -0.000000i
 Total mean-field SOC matrix (cm-1): < B(S,Sz) | Hsomf | A(S',Sz') >
                     |Sz'=-0.50>              |Sz'= 0.50>
 <Sz=-0.50|    0.000000   -0.000000i    -0.000000   -8.980088i
 <Sz= 0.50|    0.000000   -8.980088i     0.000000    0.000000i
Mean-Field SOCC =    12.699761623 cm-1
   
**************************************************
State A: Root  4
State B: Root  3
  
Angular momentum components
< B | Lx | A > =    -0.000000000i
< B | Ly | A > =     0.000000000i
< B | Lz | A > =     0.000452860i
  
Norm of one-particle transition density matrix
||gamma^AB||_total       =  0.061807
||gamma^AB||_symmetrized =  0.043122
||gamma^AB||_anti-symm   =  0.044279
  
Spin-orbit couplings
 Using HF (reference) density for the 2-elec mean-field SOC contribution
KET: S',Sz' (Root   4) =  0.500 0.500
BRA: S ,Sz  (Root   3) =  0.500 0.500
 1e Reduced matrix elements (cm-1)
<S|| Hso(L-) ||S'> =     0.0000000000     0.0000000000
<S|| Hso(L0) ||S'> =     0.0000000000    19.4779810768
<S|| Hso(L+) ||S'> =     0.0000000000    -0.0000000000
 1-elec SOC matrix (cm-1): < B(S,Sz) | Hso(1e) | A(S',Sz') >
                     |Sz'=-0.50>              |Sz'= 0.50>
 <Sz=-0.50|    0.000000   11.245618i    -0.000000    0.000000i
 <Sz= 0.50|    0.000000    0.000000i     0.000000  -11.245618i
1-elec SOCC =    15.903704953 cm-1
 2e-SOMF Reduced matrix elements (cm-1)
<S|| Hso(L-) ||S'> =    -0.0000000000    -0.0000000000
<S|| Hso(L0) ||S'> =     0.0000000000    -6.5257045627
<S|| Hso(L+) ||S'> =    -0.0000000000     0.0000000000
 2-elec mean-field SOC matrix (cm-1): < B(S,Sz) | Hso(2e-mf) | A(S',Sz') >
                     |Sz'=-0.50>              |Sz'= 0.50>
 <Sz=-0.50|    0.000000   -3.767617i     0.000000   -0.000000i
 <Sz= 0.50|   -0.000000   -0.000000i    -0.000000    3.767617i
 Total mean-field SOC matrix (cm-1): < B(S,Sz) | Hsomf | A(S',Sz') >
                     |Sz'=-0.50>              |Sz'= 0.50>
 <Sz=-0.50|    0.000000    7.478000i    -0.000000    0.000000i
 <Sz= 0.50|    0.000000    0.000000i     0.000000   -7.478000i
Mean-Field SOCC =    10.575489489 cm-1
   
**************************************************
State A: Root  4
State B: Root  5
  
Angular momentum components
< B | Lx | A > =    -0.179174252i
< B | Ly | A > =     0.000000000i
< B | Lz | A > =     0.000000000i
  
Norm of one-particle transition density matrix
||gamma^AB||_total       =  0.575468
||gamma^AB||_symmetrized =  0.488588
||gamma^AB||_anti-symm   =  0.304047
  
Spin-orbit couplings
 Using HF (reference) density for the 2-elec mean-field SOC contribution
KET: S',Sz' (Root   4) =  0.500 0.500
BRA: S ,Sz  (Root   5) =  0.500 0.500
 1e Reduced matrix elements (cm-1)
<S|| Hso(L-) ||S'> =     0.0000000000    79.2987549280
<S|| Hso(L0) ||S'> =     0.0000000000    -0.0000000000
<S|| Hso(L+) ||S'> =     0.0000000000   -79.2987549280
 1-elec SOC matrix (cm-1): < B(S,Sz) | Hso(1e) | A(S',Sz') >
                     |Sz'=-0.50>              |Sz'= 0.50>
 <Sz=-0.50|    0.000000   -0.000000i    -0.000000   64.747162i
 <Sz= 0.50|    0.000000   64.747162i     0.000000    0.000000i
1-elec SOCC =    91.566315008 cm-1
 2e-SOMF Reduced matrix elements (cm-1)
<S|| Hso(L-) ||S'> =    -0.0000000000   -29.2699922175
<S|| Hso(L0) ||S'> =     0.0000000000     0.0000000000
<S|| Hso(L+) ||S'> =    -0.0000000000    29.2699922175
 2-elec mean-field SOC matrix (cm-1): < B(S,Sz) | Hso(2e-mf) | A(S',Sz') >
                     |Sz'=-0.50>              |Sz'= 0.50>
 <Sz=-0.50|    0.000000    0.000000i     0.000000  -23.898849i
 <Sz= 0.50|   -0.000000  -23.898849i    -0.000000   -0.000000i
 Total mean-field SOC matrix (cm-1): < B(S,Sz) | Hsomf | A(S',Sz') >
                     |Sz'=-0.50>              |Sz'= 0.50>
 <Sz=-0.50|    0.000000   -0.000000i    -0.000000   40.848314i
 <Sz= 0.50|    0.000000   40.848314i     0.000000    0.000000i
Mean-Field SOCC =    57.768239236 cm-1
   
**************************************************
State A: Root  5
State B: Root  1
  
Angular momentum components
< B | Lx | A > =    -0.145188397i
< B | Ly | A > =    -0.000000000i
< B | Lz | A > =     0.000000000i
  
Norm of one-particle transition density matrix
||gamma^AB||_total       =  0.940393
||gamma^AB||_symmetrized =  0.669271
||gamma^AB||_anti-symm   =  0.660617
  
Spin-orbit couplings
 Using HF (reference) density for the 2-elec mean-field SOC contribution
KET: S',Sz' (Root   5) =  0.500 0.500
BRA: S ,Sz  (Root   1) =  0.500 0.500
 1e Reduced matrix elements (cm-1)
<S|| Hso(L-) ||S'> =     0.0000000000   -56.2806464971
<S|| Hso(L0) ||S'> =     0.0000000000    -0.0000000000
<S|| Hso(L+) ||S'> =     0.0000000000    56.2806464971
 1-elec SOC matrix (cm-1): < B(S,Sz) | Hso(1e) | A(S',Sz') >
                     |Sz'=-0.50>              |Sz'= 0.50>
 <Sz=-0.50|    0.000000   -0.000000i    -0.000000  -45.952955i
 <Sz= 0.50|    0.000000  -45.952955i     0.000000    0.000000i
1-elec SOCC =    64.987292811 cm-1
 2e-SOMF Reduced matrix elements (cm-1)
<S|| Hso(L-) ||S'> =    -0.0000000000    19.4890207795
<S|| Hso(L0) ||S'> =     0.0000000000     0.0000000000
<S|| Hso(L+) ||S'> =    -0.0000000000   -19.4890207795
 2-elec mean-field SOC matrix (cm-1): < B(S,Sz) | Hso(2e-mf) | A(S',Sz') >
                     |Sz'=-0.50>              |Sz'= 0.50>
 <Sz=-0.50|    0.000000    0.000000i     0.000000   15.912719i
 <Sz= 0.50|   -0.000000   15.912719i    -0.000000   -0.000000i
 Total mean-field SOC matrix (cm-1): < B(S,Sz) | Hsomf | A(S',Sz') >
                     |Sz'=-0.50>              |Sz'= 0.50>
 <Sz=-0.50|    0.000000   -0.000000i    -0.000000  -30.040237i
 <Sz= 0.50|    0.000000  -30.040237i     0.000000    0.000000i
Mean-Field SOCC =    42.483310024 cm-1
   
**************************************************
State A: Root  5
State B: Root  2
  
Angular momentum components
< B | Lx | A > =     0.000000000i
< B | Ly | A > =    -0.000000000i
< B | Lz | A > =     0.000000000i
  
Norm of one-particle transition density matrix
||gamma^AB||_total       =  0.269257
||gamma^AB||_symmetrized =  0.190953
||gamma^AB||_anti-symm   =  0.189833
  
Spin-orbit couplings
 Using HF (reference) density for the 2-elec mean-field SOC contribution
KET: S',Sz' (Root   5) =  0.500 0.500
BRA: S ,Sz  (Root   2) =  0.500 0.500
 1e Reduced matrix elements (cm-1)
<S|| Hso(L-) ||S'> =    -0.0000000000    -0.0000000000
<S|| Hso(L0) ||S'> =     0.0000000000     0.0000000000
<S|| Hso(L+) ||S'> =    -0.0000000000     0.0000000000
 1-elec SOC matrix (cm-1): < B(S,Sz) | Hso(1e) | A(S',Sz') >
                     |Sz'=-0.50>              |Sz'= 0.50>
 <Sz=-0.50|    0.000000    0.000000i     0.000000   -0.000000i
 <Sz= 0.50|   -0.000000   -0.000000i    -0.000000   -0.000000i
1-elec SOCC =     0.000000000 cm-1
 2e-SOMF Reduced matrix elements (cm-1)
<S|| Hso(L-) ||S'> =     0.0000000000     0.0000000000
<S|| Hso(L0) ||S'> =     0.0000000000    -0.0000000000
<S|| Hso(L+) ||S'> =     0.0000000000    -0.0000000000
 2-elec mean-field SOC matrix (cm-1): < B(S,Sz) | Hso(2e-mf) | A(S',Sz') >
                     |Sz'=-0.50>              |Sz'= 0.50>
 <Sz=-0.50|    0.000000   -0.000000i    -0.000000    0.000000i
 <Sz= 0.50|    0.000000    0.000000i     0.000000    0.000000i
 Total mean-field SOC matrix (cm-1): < B(S,Sz) | Hsomf | A(S',Sz') >
                     |Sz'=-0.50>              |Sz'= 0.50>
 <Sz=-0.50|    0.000000    0.000000i     0.000000   -0.000000i
 <Sz= 0.50|   -0.000000   -0.000000i    -0.000000   -0.000000i
Mean-Field SOCC =     0.000000000 cm-1
   
**************************************************
State A: Root  5
State B: Root  3
  
Angular momentum components
< B | Lx | A > =     0.000000000i
< B | Ly | A > =    -0.045176879i
< B | Lz | A > =     0.000000000i
  
Norm of one-particle transition density matrix
||gamma^AB||_total       =  0.150855
||gamma^AB||_symmetrized =  0.109286
||gamma^AB||_anti-symm   =  0.103991
  
Spin-orbit couplings
 Using HF (reference) density for the 2-elec mean-field SOC contribution
KET: S',Sz' (Root   5) =  0.500 0.500
BRA: S ,Sz  (Root   3) =  0.500 0.500
 1e Reduced matrix elements (cm-1)
<S|| Hso(L-) ||S'> =     3.4646805183     0.0000000000
<S|| Hso(L0) ||S'> =     0.0000000000     0.0000000000
<S|| Hso(L+) ||S'> =     3.4646805183    -0.0000000000
 1-elec SOC matrix (cm-1): < B(S,Sz) | Hso(1e) | A(S',Sz') >
                     |Sz'=-0.50>              |Sz'= 0.50>
 <Sz=-0.50|    0.000000    0.000000i    -2.828900    0.000000i
 <Sz= 0.50|    2.828900    0.000000i     0.000000   -0.000000i
1-elec SOCC =     4.000668460 cm-1
 2e-SOMF Reduced matrix elements (cm-1)
<S|| Hso(L-) ||S'> =    -1.4154896959    -0.0000000000
<S|| Hso(L0) ||S'> =     0.0000000000    -0.0000000000
<S|| Hso(L+) ||S'> =    -1.4154896959     0.0000000000
 2-elec mean-field SOC matrix (cm-1): < B(S,Sz) | Hso(2e-mf) | A(S',Sz') >
                     |Sz'=-0.50>              |Sz'= 0.50>
 <Sz=-0.50|    0.000000   -0.000000i     1.155742   -0.000000i
 <Sz= 0.50|   -1.155742   -0.000000i    -0.000000    0.000000i
 Total mean-field SOC matrix (cm-1): < B(S,Sz) | Hsomf | A(S',Sz') >
                     |Sz'=-0.50>              |Sz'= 0.50>
 <Sz=-0.50|    0.000000    0.000000i    -1.673157    0.000000i
 <Sz= 0.50|    1.673157    0.000000i     0.000000   -0.000000i
Mean-Field SOCC =     2.366201746 cm-1
   
**************************************************
State A: Root  5
State B: Root  4
  
Angular momentum components
< B | Lx | A > =     0.179174252i
< B | Ly | A > =    -0.000000000i
< B | Lz | A > =    -0.000000000i
  
Norm of one-particle transition density matrix
||gamma^AB||_total       =  0.575468
||gamma^AB||_symmetrized =  0.488588
||gamma^AB||_anti-symm   =  0.304047
  
Spin-orbit couplings
 Using HF (reference) density for the 2-elec mean-field SOC contribution
KET: S',Sz' (Root   5) =  0.500 0.500
BRA: S ,Sz  (Root   4) =  0.500 0.500
 1e Reduced matrix elements (cm-1)
<S|| Hso(L-) ||S'> =    -0.0000000000   -79.2987549280
<S|| Hso(L0) ||S'> =     0.0000000000     0.0000000000
<S|| Hso(L+) ||S'> =    -0.0000000000    79.2987549280
 1-elec SOC matrix (cm-1): < B(S,Sz) | Hso(1e) | A(S',Sz') >
                     |Sz'=-0.50>              |Sz'= 0.50>
 <Sz=-0.50|    0.000000    0.000000i     0.000000  -64.747162i
 <Sz= 0.50|   -0.000000  -64.747162i    -0.000000   -0.000000i
1-elec SOCC =    91.566315008 cm-1
 2e-SOMF Reduced matrix elements (cm-1)
<S|| Hso(L-) ||S'> =     0.0000000000    29.2699922175
<S|| Hso(L0) ||S'> =     0.0000000000    -0.0000000000
<S|| Hso(L+) ||S'> =     0.0000000000   -29.2699922175
 2-elec mean-field SOC matrix (cm-1): < B(S,Sz) | Hso(2e-mf) | A(S',Sz') >
                     |Sz'=-0.50>              |Sz'= 0.50>
 <Sz=-0.50|    0.000000   -0.000000i    -0.000000   23.898849i
 <Sz= 0.50|    0.000000   23.898849i     0.000000    0.000000i
 Total mean-field SOC matrix (cm-1): < B(S,Sz) | Hsomf | A(S',Sz') >
                     |Sz'=-0.50>              |Sz'= 0.50>
 <Sz=-0.50|    0.000000    0.000000i     0.000000  -40.848314i
 <Sz= 0.50|   -0.000000  -40.848314i    -0.000000   -0.000000i
Mean-Field SOCC =    57.768239236 cm-1
   
**************************************************
RAS-CI timing summary (seconds)
  CPU time          2.16s
  System time       0.00s
  Wall time         4.98s
  
 
 --------------------------------------------------------------
             Orbital Energies (a.u.) and Symmetries
 --------------------------------------------------------------
 
 Alpha MOs, Restricted
 -- Doubly Occupied --           
-21.116  -1.846  -1.191  -1.008
  1 A1    2 A1    1 B1    1 B2                                                 
 -- Singly Occupied (Occupied) --
 -1.174
  3 A1                                                                         
 -- Virtual --                   
 -0.133  -0.052   0.599   0.658   0.654   0.720   0.926   0.999
  4 A1    2 B1    3 B1    5 A1    6 A1    2 B2    4 B1    7 A1                 
  1.504   1.562   1.558   2.109   2.369   3.465
  8 A1    1 A2    3 B2    9 A1    5 B1   10 A1                                 
 
 Beta MOs, Restricted
 -- Doubly Occupied --           
-21.078  -1.721  -1.150  -0.960
  1 A1    2 A1    1 B1    1 B2                                                 
 -- Singly Occupied (Vacant) --  
 -0.349
  3 A1                                                                         
 -- Virtual --                   
 -0.112  -0.030   0.649   0.696   0.770   0.739   0.944   1.024
  4 A1    2 B1    3 B1    5 A1    6 A1    2 B2    4 B1    7 A1                 
  1.617   1.579   1.648   2.129   2.434   3.509
  8 A1    1 A2    3 B2    9 A1    5 B1   10 A1                                 
 --------------------------------------------------------------
 
          Ground-State Mulliken Net Atomic Charges

     Atom                 Charge (a.u.)
  ----------------------------------------
      1 O                    -0.268896
      2 H                     0.634448
      3 H                     0.634448
  ----------------------------------------
  Sum of atomic charges =     1.000000

 -----------------------------------------------------------------
                    Cartesian Multipole Moments
 -----------------------------------------------------------------
    Charge (ESU x 10^10)
                 4.8032
    Dipole Moment (Debye)
         X       0.0000      Y       0.0000      Z      -2.0099
       Tot       2.0099
    Quadrupole Moments (Debye-Ang)
        XX      -1.5180     XY       0.0000     YY      -5.9256
        XZ      -0.0000     YZ       0.0000     ZZ      -3.2653
    Octopole Moments (Debye-Ang^2)
       XXX       0.0000    XXY      -0.0000    XYY       0.0000
       YYY       0.0000    XXZ      -2.1799    XYZ      -0.0000
       YYZ      -0.3203    XZZ       0.0000    YZZ      -0.0000
       ZZZ      -1.2701
    Hexadecapole Moments (Debye-Ang^3)
      XXXX      -2.1487   XXXY       0.0000   XXYY      -1.4974
      XYYY       0.0000   YYYY      -3.9536   XXXZ      -0.0000
      XXYZ       0.0000   XYYZ      -0.0000   YYYZ       0.0000
      XXZZ      -0.4171   XYZZ       0.0000   YYZZ      -1.2360
      XZZZ      -0.0000   YZZZ       0.0000   ZZZZ      -3.0573
 -----------------------------------------------------------------
 Total job time:  9.74s(wall), 2.57s(cpu) 
 Mon Mar  6 17:06:07 2023

        *************************************************************
        *                                                           *
        *  Thank you very much for using Q-Chem.  Have a nice day.  *
        *                                                           *
        *************************************************************


