                  Welcome to Q-Chem
     A Quantum Leap Into The Future Of Chemistry


 Q-Chem 6.0 (devel), Q-Chem, Inc., Pleasanton, CA (2022)

 E. Epifanovsky,  A. T. B. Gilbert,  Xintian Feng,  Joonho Lee,  Yuezhi Mao,  
 N. Mardirossian,  P. Pokhilko,  A. White,  M. Wormit,  M. P. Coons,  
 A. L. Dempwolff,  Zhengting Gan,  D. Hait,  P. R. Horn,  L. D. Jacobson,  
 I. Kaliman,  J. Kussmann,  A. W. Lange,  Ka Un Lao,  D. S. Levine,  Jie Liu,  
 S. C. McKenzie,  A. F. Morrison,  K. Nanda,  F. Plasser,  D. R. Rehn,  
 M. L. Vidal,  Zhi-Qiang You,  Ying Zhu,  B. Alam,  B. Albrecht,  
 A. Aldossary,  E. Alguire,  J. H. Andersen,  V. Athavale,  D. Barton,  
 K. Begam,  A. Behn,  N. Bellonzi,  Y. A. Bernard,  E. J. Berquist,  
 H. Burton,  A. Carreras,  K. Carter-Fenk,  Romit Chakraborty,  
 Chandrima Chakravarty,  Junhan Chen,  A. D. Chien,  K. D. Closser,  
 V. Cofer-Shabica,  L. Cunha,  S. Dasgupta,  Jia Deng,  M. de Wergifosse,  
 M. Diedenhofen,  Hainam Do,  S. Ehlert,  Po-Tung Fang,  S. Fatehi,  
 Qingguo Feng,  T. Friedhoff,  B. Ganoe,  J. Gayvert,  Qinghui Ge,  
 G. Gidofalvi,  M. Goldey,  J. Gomes,  C. Gonzalez-Espinoza,  S. Gulania,  
 A. Gunina,  J. A. Gyamfi,  M. W. D. Hanson-Heine,  P. H. P. Harbach,  
 A. W. Hauser,  M. F. Herbst,  M. Hernandez Vera,  M. Hodecker,  
 Z. C. Holden,  S. Houck,  Xunkun Huang,  Kerwin Hui,  B. C. Huynh,  
 K. Ikeda,  M. Ivanov,  Hyunjun Ji,  Zuxin Jin,  Hanjie Jiang,  B. Kaduk,  
 S. Kaehler,  R. Kang,  K. Khistyaev,  Jaehoon Kim,  Yongbin Kim,  
 P. Klunzinger,  Z. Koczor-Benda,  Joong Hoon Koh,  D. Kosenkov,  
 Saikiran Kotaru,  L. Koulias,  T. Kowalczyk,  C. M. Krauter,  K. Kue,  
 A. Kunitsa,  T. Kus,  A. Landau,  K. V. Lawler,  D. Lefrancois,  S. Lehtola,  
 Rain Li,  Shaozhi Li,  Yi-Pei Li,  Jiashu Liang,  M. Liebenthal,  
 Hung-Hsuan Lin,  You-Sheng Lin,  Fenglai Liu,  Kuan-Yu Liu,  
 M. Loipersberger,  A. Luenser,  C. Malbon,  A. Manjanath,  P. Manohar,  
 E. Mansoor,  S. F. Manzer,  Shan-Ping Mao,  A. V. Marenich,  T. Markovich,  
 S. Mason,  F. Matz,  S. A. Maurer,  P. F. McLaughlin,  M. F. S. J. Menger,  
 J.-M. Mewes,  S. A. Mewes,  P. Morgante,  Mohammad Mostafanejad,  
 J. W. Mullinax,  K. J. Oosterbaan,  G. Paran,  V. Parravicini,  
 Alexander C. Paul,  Suranjan K. Paul,  F. Pavosevic,  Zheng Pei,  S. Prager,  
 E. I. Proynov,  E. Ramos,  B. Rana,  A. E. Rask,  A. Rettig,  R. M. Richard,  
 F. Rob,  E. Rossomme,  T. Scheele,  M. Scheurer,  M. Schneider,  
 P. E. Schneider,  N. Sergueev,  S. M. Sharada,  Hengyuan Shen,  
 W. Skomorowski,  D. W. Small,  C. J. Stein,  Yingli Su,  Yu-Chuan Su,  
 E. J. Sundstrom,  Zhen Tao,  J. Thirman,  Hung-Yi Tsai,  T. Tsuchimochi,  
 N. M. Tubman,  C. Utku,  S. P. Veccham,  O. Vydrov,  J. Wenzel,  
 Jonathan Wong,  J. Witte,  A. Yamada,  Chou-Hsun Yang,  Kun Yao,  
 S. Yeganeh,  S. R. Yost,  A. Zech,  F. Zeller,  Igor Ying Zhang,  
 Xing Zhang,  Yu Zhang,  D. Zuev,  A. Aspuru-Guzik,  A. T. Bell,  
 N. A. Besley,  K. B. Bravaya,  B. R. Brooks,  D. Casanova,  Jeng-Da Chai,  
 Hsing-Ta Chen,  S. Coriani,  C. J. Cramer,  A. E. DePrince, III,  
 R. A. DiStasio Jr.,  A. Dreuw,  B. D. Dunietz,  T. R. Furlani,  
 W. A. Goddard III,  S. Grimme,  S. Hammes-Schiffer,  T. Head-Gordon,  
 W. J. Hehre,  Chao-Ping Hsu,  T.-C. Jagau,  Yousung Jung,  A. Klamt,  
 Jing Kong,  D. S. Lambrecht,  Xiangyuan Li,  WanZhen Liang,  N. J. Mayhall,  
 C. W. McCurdy,  J. B. Neaton,  T. Neudecker,  C. Ochsenfeld,  
 J. A. Parkhill,  R. Peverati,  V. A. Rassolov,  Haisheng Ren,  Yihan Shao,  
 L. V. Slipchenko,  R. P. Steele,  J. E. Subotnik,  A. J. W. Thom,  
 A. Tkatchenko,  D. G. Truhlar,  T. Van Voorhis,  Fan Wang,  
 T. A. Wesolowski,  K. B. Whaley,  H. L. Woodcock III,  P. M. Zimmerman,  
 S. Faraji,  P. M. W. Gill,  M. Head-Gordon,  J. M. Herbert,  A. I. Krylov

 Contributors to earlier versions of Q-Chem not listed above: 
 R. D. Adamson,  B. Austin,  R. Baer,  J. Baker,  G. J. O. Beran,  
 K. Brandhorst,  S. T. Brown,  E. F. C. Byrd,  Arup K. Chakraborty,  
 G. K. L. Chan,  Chun-Min Chang,  Yunqing Chen,  C.-L. Cheng,  
 Siu Hung Chien,  D. M. Chipman,  D. L. Crittenden,  H. Dachsel,  
 R. J. Doerksen,  A. D. Dutoi,  R. G. Edgar,  J. Fosso-Tande,  
 L. Fusti-Molnar,  D. Ghosh,  A. Ghysels,  A. Golubeva-Zadorozhnaya,  
 J. Gonthier,  M. S. Gordon,  S. R. Gwaltney,  G. Hawkins,  J. E. Herr,  
 A. Heyden,  S. Hirata,  E. G. Hohenstein,  G. Kedziora,  F. J. Keil,  
 C. Kelley,  Jihan Kim,  R. A. King,  R. Z. Khaliullin,  P. P. Korambath,  
 W. Kurlancheek,  A. Laurent,  A. M. Lee,  M. S. Lee,  S. V. Levchenko,  
 Ching Yeh Lin,  D. Liotard,  E. Livshits,  R. C. Lochan,  I. Lotan,  
 L. A. Martinez-Martinez,  P. E. Maslen,  N. Nair,  D. P. O'Neill,  
 D. Neuhauser,  E. Neuscamman,  C. M. Oana,  R. Olivares-Amaya,  R. Olson,  
 T. M. Perrine,  B. Peters,  P. A. Pieniazek,  A. Prociuk,  Y. M. Rhee,  
 J. Ritchie,  M. A. Rohrdanz,  E. Rosta,  N. J. Russ,  H. F. Schaefer III,  
 M. W. Schmidt,  N. E. Schultz,  S. Sharma,  N. Shenvi,  C. D. Sherrill,  
 A. C. Simmonett,  A. Sodt,  T. Stein,  D. Stuck,  K. S. Thanthiriwatte,  
 V. Vanovschi,  L. Vogt,  Tao Wang,  A. Warshel,  M. A. Watson,  
 C. F. Williams,  Q. Wu,  X. Xu,  Jun Yang,  W. Zhang,  Yan Zhao

   Please cite Q-Chem as follows:
  "Software for the frontiers of quantum chemistry:
   An overview of developments in the Q-Chem 5 package"
   J. Chem. Phys. 155, 084801 (2021)
   https://doi.org/10.1063/5.0055522 (open access)

 Q-Chem 6.0.1 for Intel X86 EM64T Linux

 Parts of Q-Chem use Armadillo 9.900.5 (Nocturnal Misbehaviour).
 http://arma.sourceforge.net/

 Q-Chem begins on Wed Oct 25 18:15:05 2023  

 Host: atlas-121
0

     Scratch files written to ./qchem183300//
 Processing $rem in /scratch/abel/SOFTWARE/qchem/config/preferences:
 Processing $rem in /dipc/acebg/.qchemrc:

 Checking the input file for inconsistencies... 	...done.

--------------------------------------------------------------
User input:
--------------------------------------------------------------
$comment
 RAS-SF CALCULATION
$end

$molecule
1 2    !charge and multiplicity
O1
H1 O1 oh
H2 O1 oh H1 hoh

oh = 0.997
hoh = 109.17
$end

$rem
!**CALCULATION TYPE***     
JOBTYPE            sp    
EXCHANGE           HF
CORRELATION        RASCI    !RASCI=Casanova; RASCI2=Zimmerman
BASIS              STO-3G

!***SCF REFERENCE***
UNRESTRICTED       FALSE
!SCF_ALGORITHM      DIIS_GDM !DIIS,DM,DIIS_DM,GDM,DIIS_GDM,GD
SCF_FINAL_PRINT     1 !0,1,2,3

!****RAS-SF****
RAS_ROOTS          5       !number of RAS-CI roots to be computed
SET_ITER           30     !number of iterations in RASCI
RAS_ELEC           10       !number of electrons in RAS2
RAS_ELEC_ALPHA     6      !spin-α electrons in RAS2 
RAS_ELEC_BETA      4      !spin-β electrons in RAS2
RAS_ACT            7       !number of orbitals in RAS2 
RAS_OCC            0       !number of orbitals in RAS1
CALC_SOC           TRUE   !calculate SOC for EOM-CC, RAS-CI, ADC, TDDFT/TDA and TDDFT
RAS_SOC_SYM_DENS   TRUE   !averaging of α and β densities
$end                                           
--------------------------------------------------------------
 ----------------------------------------------------------------
             Standard Nuclear Orientation (Angstroms)
    I     Atom           X                Y                Z
 ----------------------------------------------------------------
    1      O       0.0000000000     0.0000000000     0.1155512138
    2      H      -0.8125311840    -0.0000000000    -0.4622048550
    3      H       0.8125311840    -0.0000000000    -0.4622048550
 ----------------------------------------------------------------
 Molecular Point Group                 C2v   NOp =  4
 Largest Abelian Subgroup              C2v   NOp =  4
 Nuclear Repulsion Energy =           8.81794733 hartrees
 There are        5 alpha and        4 beta electrons
 Requested basis set is STO-3G
 There are 4 shells and 7 basis functions

 Total QAlloc Memory Limit   2000 MB
 Mega-Array Size       188 MB
 MEM_STATIC part       192 MB


                       Distance Matrix (Angstroms)
             O (  1)   H (  2)
   H (  2)  0.997000
   H (  3)  0.997000  1.625062
 
 A cutoff of  1.0D-09 yielded     10 shell pairs
 There are        34 function pairs
 Smallest overlap matrix eigenvalue = 3.69E-01

 Scale SEOQF with 1.000000e+00/1.000000e+00/1.000000e+00

 Standard Electronic Orientation quadrupole field applied
 Nucleus-field energy     =    -0.0000000001 hartrees
 Guess from superposition of atomic densities
 Warning:  Energy on first SCF cycle will be non-variational
 SAD guess density has 10.000000 electrons

 -----------------------------------------------------------------------
  General SCF calculation program by
  Eric Jon Sundstrom, Paul Horn, Yuezhi Mao, Dmitri Zuev, Alec White,
  David Stuck, Shaama M.S., Shane Yost, Joonho Lee, David Small,
  Daniel Levine, Susi Lehtola, Hugh Burton, Evgeny Epifanovsky,
  Bang C. Huynh
 -----------------------------------------------------------------------
 Hartree-Fock
 Orthonormalizing orbitals
 A restricted open-shell SCF calculation will be
 performed using GDM
 SCF converges when RMS gradient is below 1.0e-05
 ---------------------------------------
  Cycle       Energy        RMS Gradient
 ---------------------------------------
    1     -73.3635147193      7.08e-01   Descent step
    2     -73.6056312366      4.80e-01   Descent step
    3     -73.7368520924      2.15e-01   Normal BFGS step
Fro norm of D 1.079978425681e+00
transformation scaled by 2
    4     -73.7696809423      2.77e-01   Dog-leg BFGS step
    5     -74.1964929694      7.07e-01   Descent step
    6     -74.4164926355      4.43e-01   Descent step
    7     -74.5374703874      2.36e-01   Dog-leg BFGS step
    8     -74.5869005122      4.17e-02   Normal BFGS step
    9     -74.5890447905      4.57e-03   Normal BFGS step
   10     -74.5890695625      6.95e-04   Normal BFGS step
   11     -74.5890704876      8.08e-05   Normal BFGS step
   12     -74.5890704947      1.48e-05   Normal BFGS step
   13     -74.5890704950      2.79e-06  Convergence criterion met
The disked orbital energies are calculated using alpha and beta Focks
 ---------------------------------------
 Alpha HF Exchange    Energy =  -4.62961310953730
 Beta HF Exchange     Energy =  -3.95691977215189
 Nuclear Attraction   Energy =   0.00000000000000
 One-Electron (alpha) Energy = -61.65834291337190
 One-Electron (beta)  Energy = -54.46822629887320
 Total Coulomb        Energy =  41.30608427296401
 Final Alpha MO Eigenvalues
            1           2           3           4           5           6
    1 -20.9564318  -1.8227426  -1.1498602  -0.9724427  -1.1353990   0.0748869
            7
    1   0.1811098
 Final Beta MO Eigenvalues
            1           2           3           4           5           6
    1 -20.9279095  -1.6999410  -1.1068727  -0.9158670  -0.2917864   0.1236627
            7
    1   0.2328730
 SCF time:   CPU 0.08s  wall 0.00s 
<S^2> =          0.750000000
 SCF   energy in the final basis set =      -74.5890704950
 Total energy in the final basis set =      -74.5890704950
  
     ##========================================##
     ||                                        ||
     ||              R A S M A N 2             ||
     ||________________________________________||
     ||                                        ||
     ||  Author:                               ||
     ||                                        ||
     ||        David Casanova (2010)           ||
     ||                                        ||
     ##========================================##
  
  ***************************************************
  *  RAS-CI Dimensions:                             *
  *                                                 *
  *  Active Elec.:  10 ( 6, 4)   Active Orb.:   7   *
  *  Doubly Occ. :   0           Doubly Vir.:   0   *
  *  Frozen Occ. :   0           Frozen Vir.:   0   *
  *                                                 *
  *  Total CI configurations:       245             * 
  *    Active configurations:       245             * 
  *      Hole configurations:         0             * 
  *  Particle configurations:         0             * 
  *                                                 *
  *   Requested states:        5                    *
  *  Spin multiplicity: Any multiplicity            *
  *                                                 *
  ***************************************************
  
 
Direct CI diagonalization
 ---------------------------------------------------
 Iter    Rts Conv    Rts Left    Ttl Dev     Max Dev
 ---------------------------------------------------
   1         0           5      0.081633    0.016776
   2         0           5      0.118332    0.027546
   3         0           5      0.049266    0.011486
   4         0           5      0.052137    0.012206
   5         0           5      0.017727    0.004530
   6         0           5      0.027057    0.007639
   7         0           5      0.018170    0.007044
   8         0           5      0.006169    0.002588
   9         0           5      0.006444    0.003423
  10         0           5      0.003490    0.001585
  11         0           5      0.004427    0.002039
  12         0           5      0.001382    0.000593
  13         0           5      0.001502    0.000808
  14         0           5      0.000463    0.000154
  15         0           5      0.000514    0.000297
  16         0           5      0.000253    0.000139
  17         0           5      0.000127    0.000065
  18         0           5      0.000070    0.000034
  19         0           5      0.000039    0.000018
  20         0           5      0.000018    0.000007
  21         3           2      0.000008    0.000004
  22         5           0      0.000003    0.000001    Roots Converged
 ---------------------------------------------------
   
**************************************************
 RAS-CI total energy for state   1:    -74.664656853239
  Excitation energy (eV) =  0.000000000000
  State symmetry: B2    (C2v      )
  <S^2>      :  2.0000
  Dipole Moment:   -0.0000 X    -0.0000 Y    -0.0318 Z
  Amplitudes : 
  
 | HOLE  | ALPHA   | BETA    | PART  |    AMPLITUDE 
--------------------------------------------------
 |       | 1111110 | 1110100 |       |     9.8044598604085E-01
--------------------------------------------------
*** Contributions RASCI wfn    Active: 100.00
                                 Hole:   0.00
                                 Part:   0.00

      Mulliken population analysis 
 ---------------------------------------------------
   Atom    Charge (a.u.)   Spin (a.u.)  
 ---------------------------------------------------
   1  O    0.070826        1.254560 
   2  H   -0.035413        0.372720 
   3  H   -0.035413        0.372720 
 ---------------------------------------------------
   Sum:   -0.000000        2.000000 
 ---------------------------------------------------
 
  
**************************************************
 RAS-CI total energy for state   2:    -74.571870058723
  Excitation energy (eV) =  2.524857139508
  State symmetry: A1    (C2v      )
  <S^2>      :  2.0000
  Dipole Moment:   -0.0000 X     0.0000 Y    -0.0785 Z
  Trans. Moment:    0.0000 X     0.0973 Y    -0.0000 Z
  Strength   :  0.000586
  Amplitudes : 
  
 | HOLE  | ALPHA   | BETA    | PART  |    AMPLITUDE 
--------------------------------------------------
 |       | 1111110 | 1111000 |       |     9.5881092632199E-01
 |       | 1111110 | 1011100 |       |     1.1328897611402E-01
 |       | 1111101 | 1101100 |       |    -1.7893245810116E-01
 |       | 1111101 | 1101010 |       |    -1.0064041805692E-01
--------------------------------------------------
*** Contributions RASCI wfn    Active: 100.00
                                 Hole:   0.00
                                 Part:   0.00

      Mulliken population analysis 
 ---------------------------------------------------
   Atom    Charge (a.u.)   Spin (a.u.)  
 ---------------------------------------------------
   1  O   -0.044520        1.075180 
   2  H    0.022260        0.462410 
   3  H    0.022260        0.462410 
 ---------------------------------------------------
   Sum:   -0.000000        2.000000 
 ---------------------------------------------------
 
  
**************************************************
 RAS-CI total energy for state   3:    -74.549898031387
  Excitation energy (eV) =  3.122746422981
  State symmetry: A2    (C2v      )
  <S^2>      :  2.0000
  Dipole Moment:    0.0000 X    -0.0000 Y     0.1467 Z
  Trans. Moment:    0.8756 X    -0.0000 Y    -0.0000 Z
  Strength   :  0.058659
  Amplitudes : 
  
 | HOLE  | ALPHA   | BETA    | PART  |    AMPLITUDE 
--------------------------------------------------
 |       | 1111110 | 1100110 |       |    -1.2715070703855E-01
 |       | 1111101 | 1110100 |       |     9.6635302180640E-01
 |       | 1111011 | 1110100 |       |     1.2708003867577E-01
--------------------------------------------------
*** Contributions RASCI wfn    Active: 100.00
                                 Hole:   0.00
                                 Part:   0.00

      Mulliken population analysis 
 ---------------------------------------------------
   Atom    Charge (a.u.)   Spin (a.u.)  
 ---------------------------------------------------
   1  O    0.005155        1.397588 
   2  H   -0.002577        0.301206 
   3  H   -0.002577        0.301206 
 ---------------------------------------------------
   Sum:   -0.000000        2.000000 
 ---------------------------------------------------
 
  
**************************************************
 RAS-CI total energy for state   4:    -74.483322569272
  Excitation energy (eV) =  4.934356918987
  State symmetry: B1    (C2v      )
  <S^2>      :  2.0000
  Dipole Moment:    0.0000 X     0.0000 Y     0.0562 Z
  Trans. Moment:   -0.0000 X    -0.0000 Y     0.0000 Z
  Strength   :  0.000000
  Amplitudes : 
  
 | HOLE  | ALPHA   | BETA    | PART  |    AMPLITUDE 
--------------------------------------------------
 |       | 1111110 | 1101100 |       |    -4.7981363265359E-01
 |       | 1111110 | 1101010 |       |    -1.5528961172824E-01
 |       | 1111101 | 1111000 |       |     8.3993644050532E-01
 |       | 1111101 | 1101001 |       |     1.0466387206198E-01
--------------------------------------------------
*** Contributions RASCI wfn    Active: 100.00
                                 Hole:   0.00
                                 Part:   0.00

      Mulliken population analysis 
 ---------------------------------------------------
   Atom    Charge (a.u.)   Spin (a.u.)  
 ---------------------------------------------------
   1  O   -0.085910        1.242058 
   2  H    0.042955        0.378971 
   3  H    0.042955        0.378971 
 ---------------------------------------------------
   Sum:   -0.000000        2.000000 
 ---------------------------------------------------
 
  
**************************************************
 RAS-CI total energy for state   5:    -74.376407287159
  Excitation energy (eV) =  7.843669766489
  State symmetry: B1    (C2v      )
  <S^2>      :  2.0000
  Dipole Moment:    0.0000 X     0.0000 Y     0.1283 Z
  Trans. Moment:    0.0000 X    -0.0000 Y    -0.0000 Z
  Strength   :  0.000000
  Amplitudes : 
  
 | HOLE  | ALPHA   | BETA    | PART  |    AMPLITUDE 
--------------------------------------------------
 |       | 1111110 | 1101100 |       |     8.3819486096473E-01
 |       | 1111101 | 1111000 |       |     4.9405146254916E-01
 |       | 1111101 | 1011100 |       |    -1.1176809566051E-01
 |       | 1101111 | 1101100 |       |     1.4903800533736E-01
--------------------------------------------------
*** Contributions RASCI wfn    Active: 100.00
                                 Hole:   0.00
                                 Part:   0.00

      Mulliken population analysis 
 ---------------------------------------------------
   Atom    Charge (a.u.)   Spin (a.u.)  
 ---------------------------------------------------
   1  O   -0.155458        0.825712 
   2  H    0.077729        0.587144 
   3  H    0.077729        0.587144 
 ---------------------------------------------------
   Sum:   -0.000000        2.000000 
 ---------------------------------------------------
 
  
--------------------------------------------------
 Interstate Transition Properties
--------------------------------------------------
State A: Root  1
State B: Root  2
  
Angular momentum components
< B | Lx | A > =    -0.945811731i
< B | Ly | A > =     0.000000000i
< B | Lz | A > =     0.000000000i
  
Norm of one-particle transition density matrix
||gamma^AB||_total       =  0.974322
||gamma^AB||_symmetrized =  0.688957
||gamma^AB||_anti-symm   =  0.688942
  
Spin-orbit couplings
 Using HF (reference) density for the 2-elec mean-field SOC contribution
KET: S',Sz' (Root   1) =  1.000 1.000
BRA: S ,Sz  (Root   2) =  1.000 1.000
 1e Reduced matrix elements (cm-1)
<S|| Hso(L-) ||S'> =    -0.0000000000   -70.5081580745
<S|| Hso(L0) ||S'> =     0.0000000000    -0.0000000000
<S|| Hso(L+) ||S'> =    -0.0000000000    70.5081580745
 1-elec SOC matrix (cm-1): < B(S,Sz) | Hso(1e) | A(S',Sz') >
                     |Sz'=-1.00>              |Sz'= 0.00>              |Sz'= 1.00>
 <Sz=-1.00|    0.000000    0.000000i    -0.000000   49.856797i    -0.000000    0.000000i
 <Sz= 0.00|    0.000000   49.856797i     0.000000   -0.000000i    -0.000000   49.856797i
 <Sz= 1.00|   -0.000000   -0.000000i     0.000000   49.856797i     0.000000   -0.000000i
1-elec SOCC =    99.713593407 cm-1
 Averagin spin alpha/beta reference densities
 2e-SOMF Reduced matrix elements (cm-1)
<S|| Hso(L-) ||S'> =     0.0000000000    27.8713684540
<S|| Hso(L0) ||S'> =     0.0000000000     0.0000000000
<S|| Hso(L+) ||S'> =     0.0000000000   -27.8713684540
 2-elec mean-field SOC matrix (cm-1): < B(S,Sz) | Hso(2e-mf) | A(S',Sz') >
                     |Sz'=-1.00>              |Sz'= 0.00>              |Sz'= 1.00>
 <Sz=-1.00|   -0.000000   -0.000000i     0.000000  -19.708034i     0.000000   -0.000000i
 <Sz= 0.00|   -0.000000  -19.708034i    -0.000000    0.000000i     0.000000  -19.708034i
 <Sz= 1.00|    0.000000    0.000000i    -0.000000  -19.708034i    -0.000000    0.000000i
 Total mean-field SOC matrix (cm-1): < B(S,Sz) | Hsomf | A(S',Sz') >
                     |Sz'=-1.00>              |Sz'= 0.00>              |Sz'= 1.00>
 <Sz=-1.00|    0.000000    0.000000i    -0.000000   30.148763i    -0.000000    0.000000i
 <Sz= 0.00|    0.000000   30.148763i     0.000000   -0.000000i    -0.000000   30.148763i
 <Sz= 1.00|   -0.000000   -0.000000i     0.000000   30.148763i     0.000000   -0.000000i
Mean-Field SOCC =    60.297526137 cm-1
   
**************************************************
State A: Root  1
State B: Root  3
  
Angular momentum components
< B | Lx | A > =     0.000000000i
< B | Ly | A > =    -0.191477944i
< B | Lz | A > =    -0.000000000i
  
Norm of one-particle transition density matrix
||gamma^AB||_total       =  0.983414
||gamma^AB||_symmetrized =  0.720822
||gamma^AB||_anti-symm   =  0.668968
  
Spin-orbit couplings
 Using HF (reference) density for the 2-elec mean-field SOC contribution
KET: S',Sz' (Root   1) =  1.000 1.000
BRA: S ,Sz  (Root   3) =  1.000 1.000
 1e Reduced matrix elements (cm-1)
<S|| Hso(L-) ||S'> =    42.4720878317     0.0000000000
<S|| Hso(L0) ||S'> =     0.0000000000     0.0000000000
<S|| Hso(L+) ||S'> =    42.4720878317    -0.0000000000
 1-elec SOC matrix (cm-1): < B(S,Sz) | Hso(1e) | A(S',Sz') >
                     |Sz'=-1.00>              |Sz'= 0.00>              |Sz'= 1.00>
 <Sz=-1.00|   -0.000000   -0.000000i    30.032301   -0.000000i     0.000000   -0.000000i
 <Sz= 0.00|  -30.032301   -0.000000i    -0.000000    0.000000i    30.032301   -0.000000i
 <Sz= 1.00|    0.000000    0.000000i   -30.032301   -0.000000i    -0.000000    0.000000i
1-elec SOCC =    60.064602634 cm-1
 2e-SOMF Reduced matrix elements (cm-1)
<S|| Hso(L-) ||S'> =   -15.6108125406    -0.0000000000
<S|| Hso(L0) ||S'> =     0.0000000000    -0.0000000000
<S|| Hso(L+) ||S'> =   -15.6108125406     0.0000000000
 2-elec mean-field SOC matrix (cm-1): < B(S,Sz) | Hso(2e-mf) | A(S',Sz') >
                     |Sz'=-1.00>              |Sz'= 0.00>              |Sz'= 1.00>
 <Sz=-1.00|    0.000000    0.000000i   -11.038511    0.000000i    -0.000000    0.000000i
 <Sz= 0.00|   11.038511    0.000000i     0.000000   -0.000000i   -11.038511    0.000000i
 <Sz= 1.00|   -0.000000   -0.000000i    11.038511    0.000000i     0.000000   -0.000000i
 Total mean-field SOC matrix (cm-1): < B(S,Sz) | Hsomf | A(S',Sz') >
                     |Sz'=-1.00>              |Sz'= 0.00>              |Sz'= 1.00>
 <Sz=-1.00|   -0.000000   -0.000000i    18.993790   -0.000000i     0.000000   -0.000000i
 <Sz= 0.00|  -18.993790   -0.000000i    -0.000000    0.000000i    18.993790   -0.000000i
 <Sz= 1.00|    0.000000    0.000000i   -18.993790   -0.000000i    -0.000000    0.000000i
Mean-Field SOCC =    37.987579819 cm-1
   
**************************************************
State A: Root  1
State B: Root  4
  
Angular momentum components
< B | Lx | A > =    -0.000000000i
< B | Ly | A > =    -0.000000000i
< B | Lz | A > =    -0.483301966i
  
Norm of one-particle transition density matrix
||gamma^AB||_total       =  0.502509
||gamma^AB||_symmetrized =  0.356089
||gamma^AB||_anti-symm   =  0.354564
  
Spin-orbit couplings
 Using HF (reference) density for the 2-elec mean-field SOC contribution
KET: S',Sz' (Root   1) =  1.000 1.000
BRA: S ,Sz  (Root   4) =  1.000 1.000
 1e Reduced matrix elements (cm-1)
<S|| Hso(L-) ||S'> =    -0.0000000000    -0.0000000000
<S|| Hso(L0) ||S'> =     0.0000000000    50.4339558142
<S|| Hso(L+) ||S'> =    -0.0000000000     0.0000000000
 1-elec SOC matrix (cm-1): < B(S,Sz) | Hso(1e) | A(S',Sz') >
                     |Sz'=-1.00>              |Sz'= 0.00>              |Sz'= 1.00>
 <Sz=-1.00|    0.000000  -35.662192i    -0.000000    0.000000i    -0.000000    0.000000i
 <Sz= 0.00|    0.000000    0.000000i     0.000000    0.000000i    -0.000000    0.000000i
 <Sz= 1.00|   -0.000000    0.000000i     0.000000    0.000000i     0.000000   35.662192i
1-elec SOCC =    50.433955814 cm-1
 2e-SOMF Reduced matrix elements (cm-1)
<S|| Hso(L-) ||S'> =     0.0000000000     0.0000000000
<S|| Hso(L0) ||S'> =     0.0000000000   -19.0482358090
<S|| Hso(L+) ||S'> =     0.0000000000    -0.0000000000
 2-elec mean-field SOC matrix (cm-1): < B(S,Sz) | Hso(2e-mf) | A(S',Sz') >
                     |Sz'=-1.00>              |Sz'= 0.00>              |Sz'= 1.00>
 <Sz=-1.00|   -0.000000   13.469137i     0.000000   -0.000000i     0.000000   -0.000000i
 <Sz= 0.00|   -0.000000   -0.000000i    -0.000000   -0.000000i     0.000000   -0.000000i
 <Sz= 1.00|    0.000000   -0.000000i    -0.000000   -0.000000i    -0.000000  -13.469137i
 Total mean-field SOC matrix (cm-1): < B(S,Sz) | Hsomf | A(S',Sz') >
                     |Sz'=-1.00>              |Sz'= 0.00>              |Sz'= 1.00>
 <Sz=-1.00|    0.000000  -22.193055i    -0.000000    0.000000i    -0.000000    0.000000i
 <Sz= 0.00|    0.000000    0.000000i     0.000000    0.000000i    -0.000000    0.000000i
 <Sz= 1.00|   -0.000000    0.000000i     0.000000    0.000000i     0.000000   22.193055i
Mean-Field SOCC =    31.385720005 cm-1
   
**************************************************
State A: Root  1
State B: Root  5
  
Angular momentum components
< B | Lx | A > =    -0.000000000i
< B | Ly | A > =    -0.000000000i
< B | Lz | A > =     0.763369398i
  
Norm of one-particle transition density matrix
||gamma^AB||_total       =  0.841381
||gamma^AB||_symmetrized =  0.596822
||gamma^AB||_anti-symm   =  0.593065
  
Spin-orbit couplings
 Using HF (reference) density for the 2-elec mean-field SOC contribution
KET: S',Sz' (Root   1) =  1.000 1.000
BRA: S ,Sz  (Root   5) =  1.000 1.000
 1e Reduced matrix elements (cm-1)
<S|| Hso(L-) ||S'> =    -0.0000000000    -0.0000000000
<S|| Hso(L0) ||S'> =     0.0000000000   -70.8992101181
<S|| Hso(L+) ||S'> =    -0.0000000000     0.0000000000
 1-elec SOC matrix (cm-1): < B(S,Sz) | Hso(1e) | A(S',Sz') >
                     |Sz'=-1.00>              |Sz'= 0.00>              |Sz'= 1.00>
 <Sz=-1.00|    0.000000   50.133312i    -0.000000    0.000000i    -0.000000   -0.000000i
 <Sz= 0.00|    0.000000   -0.000000i     0.000000   -0.000000i    -0.000000    0.000000i
 <Sz= 1.00|   -0.000000   -0.000000i     0.000000    0.000000i     0.000000  -50.133312i
1-elec SOCC =    70.899210118 cm-1
 2e-SOMF Reduced matrix elements (cm-1)
<S|| Hso(L-) ||S'> =     0.0000000000     0.0000000000
<S|| Hso(L0) ||S'> =     0.0000000000    27.2114482835
<S|| Hso(L+) ||S'> =     0.0000000000    -0.0000000000
 2-elec mean-field SOC matrix (cm-1): < B(S,Sz) | Hso(2e-mf) | A(S',Sz') >
                     |Sz'=-1.00>              |Sz'= 0.00>              |Sz'= 1.00>
 <Sz=-1.00|   -0.000000  -19.241400i     0.000000   -0.000000i     0.000000    0.000000i
 <Sz= 0.00|   -0.000000    0.000000i    -0.000000    0.000000i     0.000000   -0.000000i
 <Sz= 1.00|    0.000000    0.000000i    -0.000000   -0.000000i    -0.000000   19.241400i
 Total mean-field SOC matrix (cm-1): < B(S,Sz) | Hsomf | A(S',Sz') >
                     |Sz'=-1.00>              |Sz'= 0.00>              |Sz'= 1.00>
 <Sz=-1.00|    0.000000   30.891913i    -0.000000    0.000000i    -0.000000   -0.000000i
 <Sz= 0.00|    0.000000   -0.000000i     0.000000   -0.000000i    -0.000000    0.000000i
 <Sz= 1.00|   -0.000000   -0.000000i     0.000000    0.000000i     0.000000  -30.891913i
Mean-Field SOCC =    43.687761835 cm-1
   
**************************************************
State A: Root  2
State B: Root  1
  
Angular momentum components
< B | Lx | A > =     0.945811731i
< B | Ly | A > =    -0.000000000i
< B | Lz | A > =    -0.000000000i
  
Norm of one-particle transition density matrix
||gamma^AB||_total       =  0.974322
||gamma^AB||_symmetrized =  0.688957
||gamma^AB||_anti-symm   =  0.688942
  
Spin-orbit couplings
 Using HF (reference) density for the 2-elec mean-field SOC contribution
KET: S',Sz' (Root   2) =  1.000 1.000
BRA: S ,Sz  (Root   1) =  1.000 1.000
 1e Reduced matrix elements (cm-1)
<S|| Hso(L-) ||S'> =     0.0000000000    70.5081580745
<S|| Hso(L0) ||S'> =     0.0000000000     0.0000000000
<S|| Hso(L+) ||S'> =     0.0000000000   -70.5081580745
 1-elec SOC matrix (cm-1): < B(S,Sz) | Hso(1e) | A(S',Sz') >
                     |Sz'=-1.00>              |Sz'= 0.00>              |Sz'= 1.00>
 <Sz=-1.00|   -0.000000   -0.000000i     0.000000  -49.856797i     0.000000   -0.000000i
 <Sz= 0.00|   -0.000000  -49.856797i    -0.000000    0.000000i     0.000000  -49.856797i
 <Sz= 1.00|    0.000000    0.000000i    -0.000000  -49.856797i    -0.000000    0.000000i
1-elec SOCC =    99.713593407 cm-1
 2e-SOMF Reduced matrix elements (cm-1)
<S|| Hso(L-) ||S'> =    -0.0000000000   -27.8713684540
<S|| Hso(L0) ||S'> =     0.0000000000    -0.0000000000
<S|| Hso(L+) ||S'> =    -0.0000000000    27.8713684540
 2-elec mean-field SOC matrix (cm-1): < B(S,Sz) | Hso(2e-mf) | A(S',Sz') >
                     |Sz'=-1.00>              |Sz'= 0.00>              |Sz'= 1.00>
 <Sz=-1.00|    0.000000    0.000000i    -0.000000   19.708034i    -0.000000    0.000000i
 <Sz= 0.00|    0.000000   19.708034i     0.000000   -0.000000i    -0.000000   19.708034i
 <Sz= 1.00|   -0.000000   -0.000000i     0.000000   19.708034i     0.000000   -0.000000i
 Total mean-field SOC matrix (cm-1): < B(S,Sz) | Hsomf | A(S',Sz') >
                     |Sz'=-1.00>              |Sz'= 0.00>              |Sz'= 1.00>
 <Sz=-1.00|   -0.000000   -0.000000i     0.000000  -30.148763i     0.000000   -0.000000i
 <Sz= 0.00|   -0.000000  -30.148763i    -0.000000    0.000000i     0.000000  -30.148763i
 <Sz= 1.00|    0.000000    0.000000i    -0.000000  -30.148763i    -0.000000    0.000000i
Mean-Field SOCC =    60.297526137 cm-1
   
**************************************************
State A: Root  2
State B: Root  3
  
Angular momentum components
< B | Lx | A > =    -0.000000000i
< B | Ly | A > =     0.000000000i
< B | Lz | A > =     0.221376255i
  
Norm of one-particle transition density matrix
||gamma^AB||_total       =  0.210879
||gamma^AB||_symmetrized =  0.149002
||gamma^AB||_anti-symm   =  0.149226
  
Spin-orbit couplings
 Using HF (reference) density for the 2-elec mean-field SOC contribution
KET: S',Sz' (Root   2) =  1.000 1.000
BRA: S ,Sz  (Root   3) =  1.000 1.000
 1e Reduced matrix elements (cm-1)
<S|| Hso(L-) ||S'> =     0.0000000000    -0.0000000000
<S|| Hso(L0) ||S'> =     0.0000000000   -22.5015232783
<S|| Hso(L+) ||S'> =     0.0000000000     0.0000000000
 1-elec SOC matrix (cm-1): < B(S,Sz) | Hso(1e) | A(S',Sz') >
                     |Sz'=-1.00>              |Sz'= 0.00>              |Sz'= 1.00>
 <Sz=-1.00|   -0.000000   15.910980i     0.000000    0.000000i     0.000000   -0.000000i
 <Sz= 0.00|   -0.000000    0.000000i    -0.000000   -0.000000i     0.000000    0.000000i
 <Sz= 1.00|    0.000000   -0.000000i    -0.000000    0.000000i    -0.000000  -15.910980i
1-elec SOCC =    22.501523278 cm-1
 2e-SOMF Reduced matrix elements (cm-1)
<S|| Hso(L-) ||S'> =    -0.0000000000     0.0000000000
<S|| Hso(L0) ||S'> =     0.0000000000     8.3935322409
<S|| Hso(L+) ||S'> =    -0.0000000000    -0.0000000000
 2-elec mean-field SOC matrix (cm-1): < B(S,Sz) | Hso(2e-mf) | A(S',Sz') >
                     |Sz'=-1.00>              |Sz'= 0.00>              |Sz'= 1.00>
 <Sz=-1.00|    0.000000   -5.935124i    -0.000000   -0.000000i    -0.000000    0.000000i
 <Sz= 0.00|    0.000000   -0.000000i     0.000000    0.000000i    -0.000000   -0.000000i
 <Sz= 1.00|   -0.000000    0.000000i     0.000000   -0.000000i     0.000000    5.935124i
 Total mean-field SOC matrix (cm-1): < B(S,Sz) | Hsomf | A(S',Sz') >
                     |Sz'=-1.00>              |Sz'= 0.00>              |Sz'= 1.00>
 <Sz=-1.00|   -0.000000    9.975856i     0.000000    0.000000i     0.000000   -0.000000i
 <Sz= 0.00|   -0.000000    0.000000i    -0.000000   -0.000000i     0.000000    0.000000i
 <Sz= 1.00|    0.000000   -0.000000i    -0.000000    0.000000i    -0.000000   -9.975856i
Mean-Field SOCC =    14.107991037 cm-1
   
**************************************************
State A: Root  2
State B: Root  4
  
Angular momentum components
< B | Lx | A > =    -0.000000000i
< B | Ly | A > =    -0.424585757i
< B | Lz | A > =    -0.000000000i
  
Norm of one-particle transition density matrix
||gamma^AB||_total       =  0.983128
||gamma^AB||_symmetrized =  0.808724
||gamma^AB||_anti-symm   =  0.559021
  
Spin-orbit couplings
 Using HF (reference) density for the 2-elec mean-field SOC contribution
KET: S',Sz' (Root   2) =  1.000 1.000
BRA: S ,Sz  (Root   4) =  1.000 1.000
 1e Reduced matrix elements (cm-1)
<S|| Hso(L-) ||S'> =    16.0232373734    -0.0000000000
<S|| Hso(L0) ||S'> =     0.0000000000     0.0000000000
<S|| Hso(L+) ||S'> =    16.0232373734     0.0000000000
 1-elec SOC matrix (cm-1): < B(S,Sz) | Hso(1e) | A(S',Sz') >
                     |Sz'=-1.00>              |Sz'= 0.00>              |Sz'= 1.00>
 <Sz=-1.00|   -0.000000   -0.000000i    11.330140    0.000000i     0.000000    0.000000i
 <Sz= 0.00|  -11.330140    0.000000i    -0.000000   -0.000000i    11.330140    0.000000i
 <Sz= 1.00|    0.000000    0.000000i   -11.330140    0.000000i    -0.000000    0.000000i
1-elec SOCC =    22.660279607 cm-1
 2e-SOMF Reduced matrix elements (cm-1)
<S|| Hso(L-) ||S'> =    -4.7242490457     0.0000000000
<S|| Hso(L0) ||S'> =     0.0000000000    -0.0000000000
<S|| Hso(L+) ||S'> =    -4.7242490457    -0.0000000000
 2-elec mean-field SOC matrix (cm-1): < B(S,Sz) | Hso(2e-mf) | A(S',Sz') >
                     |Sz'=-1.00>              |Sz'= 0.00>              |Sz'= 1.00>
 <Sz=-1.00|    0.000000    0.000000i    -3.340549   -0.000000i    -0.000000   -0.000000i
 <Sz= 0.00|    3.340549   -0.000000i     0.000000    0.000000i    -3.340549   -0.000000i
 <Sz= 1.00|   -0.000000   -0.000000i     3.340549   -0.000000i     0.000000   -0.000000i
 Total mean-field SOC matrix (cm-1): < B(S,Sz) | Hsomf | A(S',Sz') >
                     |Sz'=-1.00>              |Sz'= 0.00>              |Sz'= 1.00>
 <Sz=-1.00|   -0.000000   -0.000000i     7.989591    0.000000i     0.000000    0.000000i
 <Sz= 0.00|   -7.989591    0.000000i    -0.000000   -0.000000i     7.989591    0.000000i
 <Sz= 1.00|    0.000000    0.000000i    -7.989591    0.000000i    -0.000000    0.000000i
Mean-Field SOCC =    15.979182534 cm-1
   
**************************************************
State A: Root  2
State B: Root  5
  
Angular momentum components
< B | Lx | A > =     0.000000000i
< B | Ly | A > =     0.671811712i
< B | Lz | A > =     0.000000000i
  
Norm of one-particle transition density matrix
||gamma^AB||_total       =  0.969695
||gamma^AB||_symmetrized =  0.568458
||gamma^AB||_anti-symm   =  0.785597
  
Spin-orbit couplings
 Using HF (reference) density for the 2-elec mean-field SOC contribution
KET: S',Sz' (Root   2) =  1.000 1.000
BRA: S ,Sz  (Root   5) =  1.000 1.000
 1e Reduced matrix elements (cm-1)
<S|| Hso(L-) ||S'> =    78.7675214638    -0.0000000000
<S|| Hso(L0) ||S'> =     0.0000000000    -0.0000000000
<S|| Hso(L+) ||S'> =    78.7675214638     0.0000000000
 1-elec SOC matrix (cm-1): < B(S,Sz) | Hso(1e) | A(S',Sz') >
                     |Sz'=-1.00>              |Sz'= 0.00>              |Sz'= 1.00>
 <Sz=-1.00|   -0.000000    0.000000i    55.697049    0.000000i     0.000000   -0.000000i
 <Sz= 0.00|  -55.697049    0.000000i    -0.000000   -0.000000i    55.697049    0.000000i
 <Sz= 1.00|    0.000000   -0.000000i   -55.697049    0.000000i    -0.000000   -0.000000i
1-elec SOCC =   111.394097129 cm-1
 2e-SOMF Reduced matrix elements (cm-1)
<S|| Hso(L-) ||S'> =   -32.3711195450    -0.0000000000
<S|| Hso(L0) ||S'> =     0.0000000000     0.0000000000
<S|| Hso(L+) ||S'> =   -32.3711195450     0.0000000000
 2-elec mean-field SOC matrix (cm-1): < B(S,Sz) | Hso(2e-mf) | A(S',Sz') >
                     |Sz'=-1.00>              |Sz'= 0.00>              |Sz'= 1.00>
 <Sz=-1.00|    0.000000   -0.000000i   -22.889838    0.000000i    -0.000000    0.000000i
 <Sz= 0.00|   22.889838    0.000000i     0.000000    0.000000i   -22.889838    0.000000i
 <Sz= 1.00|   -0.000000    0.000000i    22.889838    0.000000i     0.000000    0.000000i
 Total mean-field SOC matrix (cm-1): < B(S,Sz) | Hsomf | A(S',Sz') >
                     |Sz'=-1.00>              |Sz'= 0.00>              |Sz'= 1.00>
 <Sz=-1.00|   -0.000000    0.000000i    32.807210    0.000000i     0.000000   -0.000000i
 <Sz= 0.00|  -32.807210    0.000000i    -0.000000   -0.000000i    32.807210    0.000000i
 <Sz= 1.00|    0.000000   -0.000000i   -32.807210    0.000000i    -0.000000   -0.000000i
Mean-Field SOCC =    65.614420839 cm-1
   
**************************************************
State A: Root  3
State B: Root  1
  
Angular momentum components
< B | Lx | A > =    -0.000000000i
< B | Ly | A > =     0.191477944i
< B | Lz | A > =     0.000000000i
  
Norm of one-particle transition density matrix
||gamma^AB||_total       =  0.983414
||gamma^AB||_symmetrized =  0.720822
||gamma^AB||_anti-symm   =  0.668968
  
Spin-orbit couplings
 Using HF (reference) density for the 2-elec mean-field SOC contribution
KET: S',Sz' (Root   3) =  1.000 1.000
BRA: S ,Sz  (Root   1) =  1.000 1.000
 1e Reduced matrix elements (cm-1)
<S|| Hso(L-) ||S'> =   -42.4720878317    -0.0000000000
<S|| Hso(L0) ||S'> =     0.0000000000    -0.0000000000
<S|| Hso(L+) ||S'> =   -42.4720878317     0.0000000000
 1-elec SOC matrix (cm-1): < B(S,Sz) | Hso(1e) | A(S',Sz') >
                     |Sz'=-1.00>              |Sz'= 0.00>              |Sz'= 1.00>
 <Sz=-1.00|    0.000000    0.000000i   -30.032301    0.000000i    -0.000000    0.000000i
 <Sz= 0.00|   30.032301    0.000000i     0.000000   -0.000000i   -30.032301    0.000000i
 <Sz= 1.00|   -0.000000   -0.000000i    30.032301    0.000000i     0.000000   -0.000000i
1-elec SOCC =    60.064602634 cm-1
 2e-SOMF Reduced matrix elements (cm-1)
<S|| Hso(L-) ||S'> =    15.6108125406     0.0000000000
<S|| Hso(L0) ||S'> =     0.0000000000     0.0000000000
<S|| Hso(L+) ||S'> =    15.6108125406    -0.0000000000
 2-elec mean-field SOC matrix (cm-1): < B(S,Sz) | Hso(2e-mf) | A(S',Sz') >
                     |Sz'=-1.00>              |Sz'= 0.00>              |Sz'= 1.00>
 <Sz=-1.00|   -0.000000   -0.000000i    11.038511   -0.000000i     0.000000   -0.000000i
 <Sz= 0.00|  -11.038511   -0.000000i    -0.000000    0.000000i    11.038511   -0.000000i
 <Sz= 1.00|    0.000000    0.000000i   -11.038511   -0.000000i    -0.000000    0.000000i
 Total mean-field SOC matrix (cm-1): < B(S,Sz) | Hsomf | A(S',Sz') >
                     |Sz'=-1.00>              |Sz'= 0.00>              |Sz'= 1.00>
 <Sz=-1.00|    0.000000    0.000000i   -18.993790    0.000000i    -0.000000    0.000000i
 <Sz= 0.00|   18.993790    0.000000i     0.000000   -0.000000i   -18.993790    0.000000i
 <Sz= 1.00|   -0.000000   -0.000000i    18.993790    0.000000i     0.000000   -0.000000i
Mean-Field SOCC =    37.987579819 cm-1
   
**************************************************
State A: Root  3
State B: Root  2
  
Angular momentum components
< B | Lx | A > =     0.000000000i
< B | Ly | A > =    -0.000000000i
< B | Lz | A > =    -0.221376255i
  
Norm of one-particle transition density matrix
||gamma^AB||_total       =  0.210879
||gamma^AB||_symmetrized =  0.149002
||gamma^AB||_anti-symm   =  0.149226
  
Spin-orbit couplings
 Using HF (reference) density for the 2-elec mean-field SOC contribution
KET: S',Sz' (Root   3) =  1.000 1.000
BRA: S ,Sz  (Root   2) =  1.000 1.000
 1e Reduced matrix elements (cm-1)
<S|| Hso(L-) ||S'> =    -0.0000000000     0.0000000000
<S|| Hso(L0) ||S'> =     0.0000000000    22.5015232783
<S|| Hso(L+) ||S'> =    -0.0000000000    -0.0000000000
 1-elec SOC matrix (cm-1): < B(S,Sz) | Hso(1e) | A(S',Sz') >
                     |Sz'=-1.00>              |Sz'= 0.00>              |Sz'= 1.00>
 <Sz=-1.00|    0.000000  -15.910980i    -0.000000   -0.000000i    -0.000000    0.000000i
 <Sz= 0.00|    0.000000   -0.000000i     0.000000    0.000000i    -0.000000   -0.000000i
 <Sz= 1.00|   -0.000000    0.000000i     0.000000   -0.000000i     0.000000   15.910980i
1-elec SOCC =    22.501523278 cm-1
 2e-SOMF Reduced matrix elements (cm-1)
<S|| Hso(L-) ||S'> =     0.0000000000    -0.0000000000
<S|| Hso(L0) ||S'> =     0.0000000000    -8.3935322409
<S|| Hso(L+) ||S'> =     0.0000000000     0.0000000000
 2-elec mean-field SOC matrix (cm-1): < B(S,Sz) | Hso(2e-mf) | A(S',Sz') >
                     |Sz'=-1.00>              |Sz'= 0.00>              |Sz'= 1.00>
 <Sz=-1.00|   -0.000000    5.935124i     0.000000    0.000000i     0.000000   -0.000000i
 <Sz= 0.00|   -0.000000    0.000000i    -0.000000   -0.000000i     0.000000    0.000000i
 <Sz= 1.00|    0.000000   -0.000000i    -0.000000    0.000000i    -0.000000   -5.935124i
 Total mean-field SOC matrix (cm-1): < B(S,Sz) | Hsomf | A(S',Sz') >
                     |Sz'=-1.00>              |Sz'= 0.00>              |Sz'= 1.00>
 <Sz=-1.00|    0.000000   -9.975856i    -0.000000   -0.000000i    -0.000000    0.000000i
 <Sz= 0.00|    0.000000   -0.000000i     0.000000    0.000000i    -0.000000   -0.000000i
 <Sz= 1.00|   -0.000000    0.000000i     0.000000   -0.000000i     0.000000    9.975856i
Mean-Field SOCC =    14.107991037 cm-1
   
**************************************************
State A: Root  3
State B: Root  4
  
Angular momentum components
< B | Lx | A > =    -0.839247049i
< B | Ly | A > =     0.000000000i
< B | Lz | A > =    -0.000000000i
  
Norm of one-particle transition density matrix
||gamma^AB||_total       =  0.864519
||gamma^AB||_symmetrized =  0.610894
||gamma^AB||_anti-symm   =  0.611720
  
Spin-orbit couplings
 Using HF (reference) density for the 2-elec mean-field SOC contribution
KET: S',Sz' (Root   3) =  1.000 1.000
BRA: S ,Sz  (Root   4) =  1.000 1.000
 1e Reduced matrix elements (cm-1)
<S|| Hso(L-) ||S'> =     0.0000000000   -66.8333084641
<S|| Hso(L0) ||S'> =     0.0000000000     0.0000000000
<S|| Hso(L+) ||S'> =     0.0000000000    66.8333084641
 1-elec SOC matrix (cm-1): < B(S,Sz) | Hso(1e) | A(S',Sz') >
                     |Sz'=-1.00>              |Sz'= 0.00>              |Sz'= 1.00>
 <Sz=-1.00|   -0.000000   -0.000000i     0.000000   47.258286i     0.000000    0.000000i
 <Sz= 0.00|   -0.000000   47.258286i    -0.000000   -0.000000i     0.000000   47.258286i
 <Sz= 1.00|    0.000000   -0.000000i    -0.000000   47.258286i    -0.000000    0.000000i
1-elec SOCC =    94.516571248 cm-1
 2e-SOMF Reduced matrix elements (cm-1)
<S|| Hso(L-) ||S'> =    -0.0000000000    26.2668661506
<S|| Hso(L0) ||S'> =     0.0000000000    -0.0000000000
<S|| Hso(L+) ||S'> =    -0.0000000000   -26.2668661506
 2-elec mean-field SOC matrix (cm-1): < B(S,Sz) | Hso(2e-mf) | A(S',Sz') >
                     |Sz'=-1.00>              |Sz'= 0.00>              |Sz'= 1.00>
 <Sz=-1.00|    0.000000    0.000000i    -0.000000  -18.573479i    -0.000000   -0.000000i
 <Sz= 0.00|    0.000000  -18.573479i     0.000000    0.000000i    -0.000000  -18.573479i
 <Sz= 1.00|   -0.000000    0.000000i     0.000000  -18.573479i     0.000000   -0.000000i
 Total mean-field SOC matrix (cm-1): < B(S,Sz) | Hsomf | A(S',Sz') >
                     |Sz'=-1.00>              |Sz'= 0.00>              |Sz'= 1.00>
 <Sz=-1.00|   -0.000000   -0.000000i     0.000000   28.684806i     0.000000    0.000000i
 <Sz= 0.00|   -0.000000   28.684806i    -0.000000   -0.000000i     0.000000   28.684806i
 <Sz= 1.00|    0.000000   -0.000000i    -0.000000   28.684806i    -0.000000    0.000000i
Mean-Field SOCC =    57.369612897 cm-1
   
**************************************************
State A: Root  3
State B: Root  5
  
Angular momentum components
< B | Lx | A > =    -0.435029442i
< B | Ly | A > =    -0.000000000i
< B | Lz | A > =     0.000000000i
  
Norm of one-particle transition density matrix
||gamma^AB||_total       =  0.511059
||gamma^AB||_symmetrized =  0.361734
||gamma^AB||_anti-symm   =  0.361013
  
Spin-orbit couplings
 Using HF (reference) density for the 2-elec mean-field SOC contribution
KET: S',Sz' (Root   3) =  1.000 1.000
BRA: S ,Sz  (Root   5) =  1.000 1.000
 1e Reduced matrix elements (cm-1)
<S|| Hso(L-) ||S'> =    -0.0000000000   -27.0975710682
<S|| Hso(L0) ||S'> =     0.0000000000    -0.0000000000
<S|| Hso(L+) ||S'> =    -0.0000000000    27.0975710682
 1-elec SOC matrix (cm-1): < B(S,Sz) | Hso(1e) | A(S',Sz') >
                     |Sz'=-1.00>              |Sz'= 0.00>              |Sz'= 1.00>
 <Sz=-1.00|    0.000000    0.000000i    -0.000000   19.160876i    -0.000000    0.000000i
 <Sz= 0.00|    0.000000   19.160876i     0.000000   -0.000000i    -0.000000   19.160876i
 <Sz= 1.00|   -0.000000   -0.000000i     0.000000   19.160876i     0.000000   -0.000000i
1-elec SOCC =    38.321752512 cm-1
 2e-SOMF Reduced matrix elements (cm-1)
<S|| Hso(L-) ||S'> =     0.0000000000    10.9361860519
<S|| Hso(L0) ||S'> =     0.0000000000     0.0000000000
<S|| Hso(L+) ||S'> =     0.0000000000   -10.9361860519
 2-elec mean-field SOC matrix (cm-1): < B(S,Sz) | Hso(2e-mf) | A(S',Sz') >
                     |Sz'=-1.00>              |Sz'= 0.00>              |Sz'= 1.00>
 <Sz=-1.00|   -0.000000   -0.000000i     0.000000   -7.733051i     0.000000   -0.000000i
 <Sz= 0.00|   -0.000000   -7.733051i    -0.000000    0.000000i     0.000000   -7.733051i
 <Sz= 1.00|    0.000000    0.000000i    -0.000000   -7.733051i    -0.000000    0.000000i
 Total mean-field SOC matrix (cm-1): < B(S,Sz) | Hsomf | A(S',Sz') >
                     |Sz'=-1.00>              |Sz'= 0.00>              |Sz'= 1.00>
 <Sz=-1.00|    0.000000    0.000000i    -0.000000   11.427825i    -0.000000    0.000000i
 <Sz= 0.00|    0.000000   11.427825i     0.000000   -0.000000i    -0.000000   11.427825i
 <Sz= 1.00|   -0.000000   -0.000000i     0.000000   11.427825i     0.000000   -0.000000i
Mean-Field SOCC =    22.855649877 cm-1
   
**************************************************
State A: Root  4
State B: Root  1
  
Angular momentum components
< B | Lx | A > =     0.000000000i
< B | Ly | A > =     0.000000000i
< B | Lz | A > =     0.483301966i
  
Norm of one-particle transition density matrix
||gamma^AB||_total       =  0.502509
||gamma^AB||_symmetrized =  0.356089
||gamma^AB||_anti-symm   =  0.354564
  
Spin-orbit couplings
 Using HF (reference) density for the 2-elec mean-field SOC contribution
KET: S',Sz' (Root   4) =  1.000 1.000
BRA: S ,Sz  (Root   1) =  1.000 1.000
 1e Reduced matrix elements (cm-1)
<S|| Hso(L-) ||S'> =     0.0000000000     0.0000000000
<S|| Hso(L0) ||S'> =     0.0000000000   -50.4339558142
<S|| Hso(L+) ||S'> =     0.0000000000    -0.0000000000
 1-elec SOC matrix (cm-1): < B(S,Sz) | Hso(1e) | A(S',Sz') >
                     |Sz'=-1.00>              |Sz'= 0.00>              |Sz'= 1.00>
 <Sz=-1.00|   -0.000000   35.662192i     0.000000   -0.000000i     0.000000   -0.000000i
 <Sz= 0.00|   -0.000000   -0.000000i    -0.000000   -0.000000i     0.000000   -0.000000i
 <Sz= 1.00|    0.000000   -0.000000i    -0.000000   -0.000000i    -0.000000  -35.662192i
1-elec SOCC =    50.433955814 cm-1
 2e-SOMF Reduced matrix elements (cm-1)
<S|| Hso(L-) ||S'> =    -0.0000000000    -0.0000000000
<S|| Hso(L0) ||S'> =     0.0000000000    19.0482358090
<S|| Hso(L+) ||S'> =    -0.0000000000     0.0000000000
 2-elec mean-field SOC matrix (cm-1): < B(S,Sz) | Hso(2e-mf) | A(S',Sz') >
                     |Sz'=-1.00>              |Sz'= 0.00>              |Sz'= 1.00>
 <Sz=-1.00|    0.000000  -13.469137i    -0.000000    0.000000i    -0.000000    0.000000i
 <Sz= 0.00|    0.000000    0.000000i     0.000000    0.000000i    -0.000000    0.000000i
 <Sz= 1.00|   -0.000000    0.000000i     0.000000    0.000000i     0.000000   13.469137i
 Total mean-field SOC matrix (cm-1): < B(S,Sz) | Hsomf | A(S',Sz') >
                     |Sz'=-1.00>              |Sz'= 0.00>              |Sz'= 1.00>
 <Sz=-1.00|   -0.000000   22.193055i     0.000000   -0.000000i     0.000000   -0.000000i
 <Sz= 0.00|   -0.000000   -0.000000i    -0.000000   -0.000000i     0.000000   -0.000000i
 <Sz= 1.00|    0.000000   -0.000000i    -0.000000   -0.000000i    -0.000000  -22.193055i
Mean-Field SOCC =    31.385720005 cm-1
   
**************************************************
State A: Root  4
State B: Root  2
  
Angular momentum components
< B | Lx | A > =     0.000000000i
< B | Ly | A > =     0.424585757i
< B | Lz | A > =     0.000000000i
  
Norm of one-particle transition density matrix
||gamma^AB||_total       =  0.983128
||gamma^AB||_symmetrized =  0.808724
||gamma^AB||_anti-symm   =  0.559021
  
Spin-orbit couplings
 Using HF (reference) density for the 2-elec mean-field SOC contribution
KET: S',Sz' (Root   4) =  1.000 1.000
BRA: S ,Sz  (Root   2) =  1.000 1.000
 1e Reduced matrix elements (cm-1)
<S|| Hso(L-) ||S'> =   -16.0232373734     0.0000000000
<S|| Hso(L0) ||S'> =     0.0000000000    -0.0000000000
<S|| Hso(L+) ||S'> =   -16.0232373734    -0.0000000000
 1-elec SOC matrix (cm-1): < B(S,Sz) | Hso(1e) | A(S',Sz') >
                     |Sz'=-1.00>              |Sz'= 0.00>              |Sz'= 1.00>
 <Sz=-1.00|    0.000000    0.000000i   -11.330140   -0.000000i    -0.000000   -0.000000i
 <Sz= 0.00|   11.330140   -0.000000i     0.000000    0.000000i   -11.330140   -0.000000i
 <Sz= 1.00|   -0.000000   -0.000000i    11.330140   -0.000000i     0.000000   -0.000000i
1-elec SOCC =    22.660279607 cm-1
 2e-SOMF Reduced matrix elements (cm-1)
<S|| Hso(L-) ||S'> =     4.7242490457    -0.0000000000
<S|| Hso(L0) ||S'> =     0.0000000000     0.0000000000
<S|| Hso(L+) ||S'> =     4.7242490457     0.0000000000
 2-elec mean-field SOC matrix (cm-1): < B(S,Sz) | Hso(2e-mf) | A(S',Sz') >
                     |Sz'=-1.00>              |Sz'= 0.00>              |Sz'= 1.00>
 <Sz=-1.00|   -0.000000   -0.000000i     3.340549    0.000000i     0.000000    0.000000i
 <Sz= 0.00|   -3.340549    0.000000i    -0.000000   -0.000000i     3.340549    0.000000i
 <Sz= 1.00|    0.000000    0.000000i    -3.340549    0.000000i    -0.000000    0.000000i
 Total mean-field SOC matrix (cm-1): < B(S,Sz) | Hsomf | A(S',Sz') >
                     |Sz'=-1.00>              |Sz'= 0.00>              |Sz'= 1.00>
 <Sz=-1.00|    0.000000    0.000000i    -7.989591   -0.000000i    -0.000000   -0.000000i
 <Sz= 0.00|    7.989591   -0.000000i     0.000000    0.000000i    -7.989591   -0.000000i
 <Sz= 1.00|   -0.000000   -0.000000i     7.989591   -0.000000i     0.000000   -0.000000i
Mean-Field SOCC =    15.979182534 cm-1
   
**************************************************
State A: Root  4
State B: Root  3
  
Angular momentum components
< B | Lx | A > =     0.839247049i
< B | Ly | A > =    -0.000000000i
< B | Lz | A > =     0.000000000i
  
Norm of one-particle transition density matrix
||gamma^AB||_total       =  0.864519
||gamma^AB||_symmetrized =  0.610894
||gamma^AB||_anti-symm   =  0.611720
  
Spin-orbit couplings
 Using HF (reference) density for the 2-elec mean-field SOC contribution
KET: S',Sz' (Root   4) =  1.000 1.000
BRA: S ,Sz  (Root   3) =  1.000 1.000
 1e Reduced matrix elements (cm-1)
<S|| Hso(L-) ||S'> =    -0.0000000000    66.8333084641
<S|| Hso(L0) ||S'> =     0.0000000000    -0.0000000000
<S|| Hso(L+) ||S'> =    -0.0000000000   -66.8333084641
 1-elec SOC matrix (cm-1): < B(S,Sz) | Hso(1e) | A(S',Sz') >
                     |Sz'=-1.00>              |Sz'= 0.00>              |Sz'= 1.00>
 <Sz=-1.00|    0.000000    0.000000i    -0.000000  -47.258286i    -0.000000   -0.000000i
 <Sz= 0.00|    0.000000  -47.258286i     0.000000    0.000000i    -0.000000  -47.258286i
 <Sz= 1.00|   -0.000000    0.000000i     0.000000  -47.258286i     0.000000   -0.000000i
1-elec SOCC =    94.516571248 cm-1
 2e-SOMF Reduced matrix elements (cm-1)
<S|| Hso(L-) ||S'> =     0.0000000000   -26.2668661506
<S|| Hso(L0) ||S'> =     0.0000000000     0.0000000000
<S|| Hso(L+) ||S'> =     0.0000000000    26.2668661506
 2-elec mean-field SOC matrix (cm-1): < B(S,Sz) | Hso(2e-mf) | A(S',Sz') >
                     |Sz'=-1.00>              |Sz'= 0.00>              |Sz'= 1.00>
 <Sz=-1.00|   -0.000000   -0.000000i     0.000000   18.573479i     0.000000    0.000000i
 <Sz= 0.00|   -0.000000   18.573479i    -0.000000   -0.000000i     0.000000   18.573479i
 <Sz= 1.00|    0.000000   -0.000000i    -0.000000   18.573479i    -0.000000    0.000000i
 Total mean-field SOC matrix (cm-1): < B(S,Sz) | Hsomf | A(S',Sz') >
                     |Sz'=-1.00>              |Sz'= 0.00>              |Sz'= 1.00>
 <Sz=-1.00|    0.000000    0.000000i    -0.000000  -28.684806i    -0.000000   -0.000000i
 <Sz= 0.00|    0.000000  -28.684806i     0.000000    0.000000i    -0.000000  -28.684806i
 <Sz= 1.00|   -0.000000    0.000000i     0.000000  -28.684806i     0.000000   -0.000000i
Mean-Field SOCC =    57.369612897 cm-1
   
**************************************************
State A: Root  4
State B: Root  5
  
Angular momentum components
< B | Lx | A > =     0.000000000i
< B | Ly | A > =     0.000000000i
< B | Lz | A > =    -0.000000000i
  
Norm of one-particle transition density matrix
||gamma^AB||_total       =  0.848695
||gamma^AB||_symmetrized =  0.838155
||gamma^AB||_anti-symm   =  0.133336
  
Spin-orbit couplings
 Using HF (reference) density for the 2-elec mean-field SOC contribution
KET: S',Sz' (Root   4) =  1.000 1.000
BRA: S ,Sz  (Root   5) =  1.000 1.000
 1e Reduced matrix elements (cm-1)
<S|| Hso(L-) ||S'> =     0.0000000000     0.0000000000
<S|| Hso(L0) ||S'> =     0.0000000000     0.0000000000
<S|| Hso(L+) ||S'> =     0.0000000000    -0.0000000000
 1-elec SOC matrix (cm-1): < B(S,Sz) | Hso(1e) | A(S',Sz') >
                     |Sz'=-1.00>              |Sz'= 0.00>              |Sz'= 1.00>
 <Sz=-1.00|   -0.000000   -0.000000i     0.000000   -0.000000i     0.000000    0.000000i
 <Sz= 0.00|   -0.000000   -0.000000i    -0.000000    0.000000i     0.000000   -0.000000i
 <Sz= 1.00|    0.000000    0.000000i    -0.000000   -0.000000i    -0.000000    0.000000i
1-elec SOCC =     0.000000000 cm-1
 2e-SOMF Reduced matrix elements (cm-1)
<S|| Hso(L-) ||S'> =    -0.0000000000    -0.0000000000
<S|| Hso(L0) ||S'> =     0.0000000000    -0.0000000000
<S|| Hso(L+) ||S'> =    -0.0000000000     0.0000000000
 2-elec mean-field SOC matrix (cm-1): < B(S,Sz) | Hso(2e-mf) | A(S',Sz') >
                     |Sz'=-1.00>              |Sz'= 0.00>              |Sz'= 1.00>
 <Sz=-1.00|    0.000000    0.000000i    -0.000000    0.000000i    -0.000000   -0.000000i
 <Sz= 0.00|    0.000000    0.000000i     0.000000   -0.000000i    -0.000000    0.000000i
 <Sz= 1.00|   -0.000000   -0.000000i     0.000000    0.000000i     0.000000   -0.000000i
 Total mean-field SOC matrix (cm-1): < B(S,Sz) | Hsomf | A(S',Sz') >
                     |Sz'=-1.00>              |Sz'= 0.00>              |Sz'= 1.00>
 <Sz=-1.00|   -0.000000   -0.000000i     0.000000   -0.000000i     0.000000    0.000000i
 <Sz= 0.00|   -0.000000   -0.000000i    -0.000000    0.000000i     0.000000   -0.000000i
 <Sz= 1.00|    0.000000    0.000000i    -0.000000   -0.000000i    -0.000000    0.000000i
Mean-Field SOCC =     0.000000000 cm-1
   
**************************************************
State A: Root  5
State B: Root  1
  
Angular momentum components
< B | Lx | A > =     0.000000000i
< B | Ly | A > =     0.000000000i
< B | Lz | A > =    -0.763369398i
  
Norm of one-particle transition density matrix
||gamma^AB||_total       =  0.841381
||gamma^AB||_symmetrized =  0.596822
||gamma^AB||_anti-symm   =  0.593065
  
Spin-orbit couplings
 Using HF (reference) density for the 2-elec mean-field SOC contribution
KET: S',Sz' (Root   5) =  1.000 1.000
BRA: S ,Sz  (Root   1) =  1.000 1.000
 1e Reduced matrix elements (cm-1)
<S|| Hso(L-) ||S'> =     0.0000000000     0.0000000000
<S|| Hso(L0) ||S'> =     0.0000000000    70.8992101181
<S|| Hso(L+) ||S'> =     0.0000000000    -0.0000000000
 1-elec SOC matrix (cm-1): < B(S,Sz) | Hso(1e) | A(S',Sz') >
                     |Sz'=-1.00>              |Sz'= 0.00>              |Sz'= 1.00>
 <Sz=-1.00|   -0.000000  -50.133312i     0.000000   -0.000000i     0.000000    0.000000i
 <Sz= 0.00|   -0.000000    0.000000i    -0.000000    0.000000i     0.000000   -0.000000i
 <Sz= 1.00|    0.000000    0.000000i    -0.000000   -0.000000i    -0.000000   50.133312i
1-elec SOCC =    70.899210118 cm-1
 2e-SOMF Reduced matrix elements (cm-1)
<S|| Hso(L-) ||S'> =    -0.0000000000    -0.0000000000
<S|| Hso(L0) ||S'> =     0.0000000000   -27.2114482835
<S|| Hso(L+) ||S'> =    -0.0000000000     0.0000000000
 2-elec mean-field SOC matrix (cm-1): < B(S,Sz) | Hso(2e-mf) | A(S',Sz') >
                     |Sz'=-1.00>              |Sz'= 0.00>              |Sz'= 1.00>
 <Sz=-1.00|    0.000000   19.241400i    -0.000000    0.000000i    -0.000000   -0.000000i
 <Sz= 0.00|    0.000000   -0.000000i     0.000000   -0.000000i    -0.000000    0.000000i
 <Sz= 1.00|   -0.000000   -0.000000i     0.000000    0.000000i     0.000000  -19.241400i
 Total mean-field SOC matrix (cm-1): < B(S,Sz) | Hsomf | A(S',Sz') >
                     |Sz'=-1.00>              |Sz'= 0.00>              |Sz'= 1.00>
 <Sz=-1.00|   -0.000000  -30.891913i     0.000000   -0.000000i     0.000000    0.000000i
 <Sz= 0.00|   -0.000000    0.000000i    -0.000000    0.000000i     0.000000   -0.000000i
 <Sz= 1.00|    0.000000    0.000000i    -0.000000   -0.000000i    -0.000000   30.891913i
Mean-Field SOCC =    43.687761835 cm-1
   
**************************************************
State A: Root  5
State B: Root  2
  
Angular momentum components
< B | Lx | A > =    -0.000000000i
< B | Ly | A > =    -0.671811712i
< B | Lz | A > =    -0.000000000i
  
Norm of one-particle transition density matrix
||gamma^AB||_total       =  0.969695
||gamma^AB||_symmetrized =  0.568458
||gamma^AB||_anti-symm   =  0.785597
  
Spin-orbit couplings
 Using HF (reference) density for the 2-elec mean-field SOC contribution
KET: S',Sz' (Root   5) =  1.000 1.000
BRA: S ,Sz  (Root   2) =  1.000 1.000
 1e Reduced matrix elements (cm-1)
<S|| Hso(L-) ||S'> =   -78.7675214638     0.0000000000
<S|| Hso(L0) ||S'> =     0.0000000000     0.0000000000
<S|| Hso(L+) ||S'> =   -78.7675214638    -0.0000000000
 1-elec SOC matrix (cm-1): < B(S,Sz) | Hso(1e) | A(S',Sz') >
                     |Sz'=-1.00>              |Sz'= 0.00>              |Sz'= 1.00>
 <Sz=-1.00|    0.000000   -0.000000i   -55.697049   -0.000000i    -0.000000    0.000000i
 <Sz= 0.00|   55.697049   -0.000000i     0.000000    0.000000i   -55.697049   -0.000000i
 <Sz= 1.00|   -0.000000    0.000000i    55.697049   -0.000000i     0.000000    0.000000i
1-elec SOCC =   111.394097129 cm-1
 2e-SOMF Reduced matrix elements (cm-1)
<S|| Hso(L-) ||S'> =    32.3711195450     0.0000000000
<S|| Hso(L0) ||S'> =     0.0000000000    -0.0000000000
<S|| Hso(L+) ||S'> =    32.3711195450    -0.0000000000
 2-elec mean-field SOC matrix (cm-1): < B(S,Sz) | Hso(2e-mf) | A(S',Sz') >
                     |Sz'=-1.00>              |Sz'= 0.00>              |Sz'= 1.00>
 <Sz=-1.00|   -0.000000    0.000000i    22.889838   -0.000000i     0.000000   -0.000000i
 <Sz= 0.00|  -22.889838   -0.000000i    -0.000000   -0.000000i    22.889838   -0.000000i
 <Sz= 1.00|    0.000000   -0.000000i   -22.889838   -0.000000i    -0.000000   -0.000000i
 Total mean-field SOC matrix (cm-1): < B(S,Sz) | Hsomf | A(S',Sz') >
                     |Sz'=-1.00>              |Sz'= 0.00>              |Sz'= 1.00>
 <Sz=-1.00|    0.000000   -0.000000i   -32.807210   -0.000000i    -0.000000    0.000000i
 <Sz= 0.00|   32.807210   -0.000000i     0.000000    0.000000i   -32.807210   -0.000000i
 <Sz= 1.00|   -0.000000    0.000000i    32.807210   -0.000000i     0.000000    0.000000i
Mean-Field SOCC =    65.614420839 cm-1
   
**************************************************
State A: Root  5
State B: Root  3
  
Angular momentum components
< B | Lx | A > =     0.435029442i
< B | Ly | A > =     0.000000000i
< B | Lz | A > =    -0.000000000i
  
Norm of one-particle transition density matrix
||gamma^AB||_total       =  0.511059
||gamma^AB||_symmetrized =  0.361734
||gamma^AB||_anti-symm   =  0.361013
  
Spin-orbit couplings
 Using HF (reference) density for the 2-elec mean-field SOC contribution
KET: S',Sz' (Root   5) =  1.000 1.000
BRA: S ,Sz  (Root   3) =  1.000 1.000
 1e Reduced matrix elements (cm-1)
<S|| Hso(L-) ||S'> =     0.0000000000    27.0975710682
<S|| Hso(L0) ||S'> =     0.0000000000     0.0000000000
<S|| Hso(L+) ||S'> =     0.0000000000   -27.0975710682
 1-elec SOC matrix (cm-1): < B(S,Sz) | Hso(1e) | A(S',Sz') >
                     |Sz'=-1.00>              |Sz'= 0.00>              |Sz'= 1.00>
 <Sz=-1.00|   -0.000000   -0.000000i     0.000000  -19.160876i     0.000000   -0.000000i
 <Sz= 0.00|   -0.000000  -19.160876i    -0.000000    0.000000i     0.000000  -19.160876i
 <Sz= 1.00|    0.000000    0.000000i    -0.000000  -19.160876i    -0.000000    0.000000i
1-elec SOCC =    38.321752512 cm-1
 2e-SOMF Reduced matrix elements (cm-1)
<S|| Hso(L-) ||S'> =    -0.0000000000   -10.9361860519
<S|| Hso(L0) ||S'> =     0.0000000000    -0.0000000000
<S|| Hso(L+) ||S'> =    -0.0000000000    10.9361860519
 2-elec mean-field SOC matrix (cm-1): < B(S,Sz) | Hso(2e-mf) | A(S',Sz') >
                     |Sz'=-1.00>              |Sz'= 0.00>              |Sz'= 1.00>
 <Sz=-1.00|    0.000000    0.000000i    -0.000000    7.733051i    -0.000000    0.000000i
 <Sz= 0.00|    0.000000    7.733051i     0.000000   -0.000000i    -0.000000    7.733051i
 <Sz= 1.00|   -0.000000   -0.000000i     0.000000    7.733051i     0.000000   -0.000000i
 Total mean-field SOC matrix (cm-1): < B(S,Sz) | Hsomf | A(S',Sz') >
                     |Sz'=-1.00>              |Sz'= 0.00>              |Sz'= 1.00>
 <Sz=-1.00|   -0.000000   -0.000000i     0.000000  -11.427825i     0.000000   -0.000000i
 <Sz= 0.00|   -0.000000  -11.427825i    -0.000000    0.000000i     0.000000  -11.427825i
 <Sz= 1.00|    0.000000    0.000000i    -0.000000  -11.427825i    -0.000000    0.000000i
Mean-Field SOCC =    22.855649877 cm-1
   
**************************************************
State A: Root  5
State B: Root  4
  
Angular momentum components
< B | Lx | A > =    -0.000000000i
< B | Ly | A > =    -0.000000000i
< B | Lz | A > =     0.000000000i
  
Norm of one-particle transition density matrix
||gamma^AB||_total       =  0.848695
||gamma^AB||_symmetrized =  0.838155
||gamma^AB||_anti-symm   =  0.133336
  
Spin-orbit couplings
 Using HF (reference) density for the 2-elec mean-field SOC contribution
KET: S',Sz' (Root   5) =  1.000 1.000
BRA: S ,Sz  (Root   4) =  1.000 1.000
 1e Reduced matrix elements (cm-1)
<S|| Hso(L-) ||S'> =    -0.0000000000    -0.0000000000
<S|| Hso(L0) ||S'> =     0.0000000000    -0.0000000000
<S|| Hso(L+) ||S'> =    -0.0000000000     0.0000000000
 1-elec SOC matrix (cm-1): < B(S,Sz) | Hso(1e) | A(S',Sz') >
                     |Sz'=-1.00>              |Sz'= 0.00>              |Sz'= 1.00>
 <Sz=-1.00|    0.000000    0.000000i    -0.000000    0.000000i    -0.000000   -0.000000i
 <Sz= 0.00|    0.000000    0.000000i     0.000000   -0.000000i    -0.000000    0.000000i
 <Sz= 1.00|   -0.000000   -0.000000i     0.000000    0.000000i     0.000000   -0.000000i
1-elec SOCC =     0.000000000 cm-1
 2e-SOMF Reduced matrix elements (cm-1)
<S|| Hso(L-) ||S'> =     0.0000000000     0.0000000000
<S|| Hso(L0) ||S'> =     0.0000000000     0.0000000000
<S|| Hso(L+) ||S'> =     0.0000000000    -0.0000000000
 2-elec mean-field SOC matrix (cm-1): < B(S,Sz) | Hso(2e-mf) | A(S',Sz') >
                     |Sz'=-1.00>              |Sz'= 0.00>              |Sz'= 1.00>
 <Sz=-1.00|   -0.000000   -0.000000i     0.000000   -0.000000i     0.000000    0.000000i
 <Sz= 0.00|   -0.000000   -0.000000i    -0.000000    0.000000i     0.000000   -0.000000i
 <Sz= 1.00|    0.000000    0.000000i    -0.000000   -0.000000i    -0.000000    0.000000i
 Total mean-field SOC matrix (cm-1): < B(S,Sz) | Hsomf | A(S',Sz') >
                     |Sz'=-1.00>              |Sz'= 0.00>              |Sz'= 1.00>
 <Sz=-1.00|    0.000000    0.000000i    -0.000000    0.000000i    -0.000000   -0.000000i
 <Sz= 0.00|    0.000000    0.000000i     0.000000   -0.000000i    -0.000000    0.000000i
 <Sz= 1.00|   -0.000000   -0.000000i     0.000000    0.000000i     0.000000   -0.000000i
Mean-Field SOCC =     0.000000000 cm-1
   
**************************************************
RAS-CI timing summary (seconds)
  CPU time          0.51s
  System time       0.00s
  Wall time         1.47s
  
 
 --------------------------------------------------------------
             Orbital Energies (a.u.) and Symmetries
 --------------------------------------------------------------
 
 Alpha MOs, Restricted
 -- Doubly Occupied --           
-20.956  -1.823  -1.150  -0.972
  1 A1    2 A1    1 B1    1 B2                                                 
 -- Singly Occupied (Occupied) --
 -1.135
  3 A1                                                                         
 -- Virtual --                   
  0.075   0.181
  4 A1    2 B1                                                                 
 
 Beta MOs, Restricted
 -- Doubly Occupied --           
-20.928  -1.700  -1.107  -0.916
  1 A1    2 A1    1 B1    1 B2                                                 
 -- Singly Occupied (Vacant) --  
 -0.292
  3 A1                                                                         
 -- Virtual --                   
  0.124   0.233
  4 A1    2 B1                                                                 
 --------------------------------------------------------------
 
          Ground-State Mulliken Net Atomic Charges

     Atom                 Charge (a.u.)
  ----------------------------------------
      1 O                     0.048961
      2 H                     0.475519
      3 H                     0.475519
  ----------------------------------------
  Sum of atomic charges =     1.000000

 -----------------------------------------------------------------
                    Cartesian Multipole Moments
 -----------------------------------------------------------------
    Charge (ESU x 10^10)
                 4.8032
    Dipole Moment (Debye)
         X      -0.0000      Y      -0.0000      Z      -1.8993
       Tot       1.8993
    Quadrupole Moments (Debye-Ang)
        XX      -1.7097     XY       0.0000     YY      -5.4316
        XZ       0.0000     YZ       0.0000     ZZ      -3.2320
    Octopole Moments (Debye-Ang^2)
       XXX      -0.0000    XXY      -0.0000    XYY      -0.0000
       YYY      -0.0000    XXZ      -1.7814    XYZ      -0.0000
       YYZ      -0.1378    XZZ       0.0000    YZZ      -0.0000
       ZZZ      -0.7126
    Hexadecapole Moments (Debye-Ang^3)
      XXXX      -3.1459   XXXY       0.0000   XXYY      -1.4108
      XYYY       0.0000   YYYY      -2.8013   XXXZ       0.0000
      XXYZ       0.0000   XYYZ       0.0000   YYYZ      -0.0000
      XXZZ      -0.6180   XYZZ       0.0000   YYZZ      -1.0158
      XZZZ       0.0000   YZZZ       0.0000   ZZZZ      -2.9171
 -----------------------------------------------------------------
 Mayer SCF Bond Order, atomic valence on the diagonal:

            1           2           3
    1   1.4912078   0.7456039   0.7456039
    2   0.7456039   0.7723315   0.0267276
    3   0.7456039   0.0267276   0.7723315


 Total job time:  3.12s(wall), 0.69s(cpu) 
 Wed Oct 25 18:15:08 2023

        *************************************************************
        *                                                           *
        *  Thank you very much for using Q-Chem.  Have a nice day.  *
        *                                                           *
        *************************************************************


