                  Welcome to Q-Chem
     A Quantum Leap Into The Future Of Chemistry


 Q-Chem 6.0 (devel), Q-Chem, Inc., Pleasanton, CA (2022)

 E. Epifanovsky,  A. T. B. Gilbert,  Xintian Feng,  Joonho Lee,  Yuezhi Mao,  
 N. Mardirossian,  P. Pokhilko,  A. White,  M. Wormit,  M. P. Coons,  
 A. L. Dempwolff,  Zhengting Gan,  D. Hait,  P. R. Horn,  L. D. Jacobson,  
 I. Kaliman,  J. Kussmann,  A. W. Lange,  Ka Un Lao,  D. S. Levine,  Jie Liu,  
 S. C. McKenzie,  A. F. Morrison,  K. Nanda,  F. Plasser,  D. R. Rehn,  
 M. L. Vidal,  Zhi-Qiang You,  Ying Zhu,  B. Alam,  B. Albrecht,  
 A. Aldossary,  E. Alguire,  J. H. Andersen,  V. Athavale,  D. Barton,  
 K. Begam,  A. Behn,  N. Bellonzi,  Y. A. Bernard,  E. J. Berquist,  
 H. Burton,  A. Carreras,  K. Carter-Fenk,  Romit Chakraborty,  
 Chandrima Chakravarty,  Junhan Chen,  A. D. Chien,  K. D. Closser,  
 V. Cofer-Shabica,  L. Cunha,  S. Dasgupta,  Jia Deng,  M. de Wergifosse,  
 M. Diedenhofen,  Hainam Do,  S. Ehlert,  Po-Tung Fang,  S. Fatehi,  
 Qingguo Feng,  T. Friedhoff,  B. Ganoe,  J. Gayvert,  Qinghui Ge,  
 G. Gidofalvi,  M. Goldey,  J. Gomes,  C. Gonzalez-Espinoza,  S. Gulania,  
 A. Gunina,  J. A. Gyamfi,  M. W. D. Hanson-Heine,  P. H. P. Harbach,  
 A. W. Hauser,  M. F. Herbst,  M. Hernandez Vera,  M. Hodecker,  
 Z. C. Holden,  S. Houck,  Xunkun Huang,  Kerwin Hui,  B. C. Huynh,  
 K. Ikeda,  M. Ivanov,  Hyunjun Ji,  Zuxin Jin,  Hanjie Jiang,  B. Kaduk,  
 S. Kaehler,  R. Kang,  K. Khistyaev,  Jaehoon Kim,  Yongbin Kim,  
 P. Klunzinger,  Z. Koczor-Benda,  Joong Hoon Koh,  D. Kosenkov,  
 Saikiran Kotaru,  L. Koulias,  T. Kowalczyk,  C. M. Krauter,  K. Kue,  
 A. Kunitsa,  T. Kus,  A. Landau,  K. V. Lawler,  D. Lefrancois,  S. Lehtola,  
 Rain Li,  Shaozhi Li,  Yi-Pei Li,  Jiashu Liang,  M. Liebenthal,  
 Hung-Hsuan Lin,  You-Sheng Lin,  Fenglai Liu,  Kuan-Yu Liu,  
 M. Loipersberger,  A. Luenser,  C. Malbon,  A. Manjanath,  P. Manohar,  
 E. Mansoor,  S. F. Manzer,  Shan-Ping Mao,  A. V. Marenich,  T. Markovich,  
 S. Mason,  F. Matz,  S. A. Maurer,  P. F. McLaughlin,  M. F. S. J. Menger,  
 J.-M. Mewes,  S. A. Mewes,  P. Morgante,  Mohammad Mostafanejad,  
 J. W. Mullinax,  K. J. Oosterbaan,  G. Paran,  V. Parravicini,  
 Alexander C. Paul,  Suranjan K. Paul,  F. Pavosevic,  Zheng Pei,  S. Prager,  
 E. I. Proynov,  E. Ramos,  B. Rana,  A. E. Rask,  A. Rettig,  R. M. Richard,  
 F. Rob,  E. Rossomme,  T. Scheele,  M. Scheurer,  M. Schneider,  
 P. E. Schneider,  N. Sergueev,  S. M. Sharada,  Hengyuan Shen,  
 W. Skomorowski,  D. W. Small,  C. J. Stein,  Yingli Su,  Yu-Chuan Su,  
 E. J. Sundstrom,  Zhen Tao,  J. Thirman,  Hung-Yi Tsai,  T. Tsuchimochi,  
 N. M. Tubman,  C. Utku,  S. P. Veccham,  O. Vydrov,  J. Wenzel,  
 Jonathan Wong,  J. Witte,  A. Yamada,  Chou-Hsun Yang,  Kun Yao,  
 S. Yeganeh,  S. R. Yost,  A. Zech,  F. Zeller,  Igor Ying Zhang,  
 Xing Zhang,  Yu Zhang,  D. Zuev,  A. Aspuru-Guzik,  A. T. Bell,  
 N. A. Besley,  K. B. Bravaya,  B. R. Brooks,  D. Casanova,  Jeng-Da Chai,  
 Hsing-Ta Chen,  S. Coriani,  C. J. Cramer,  A. E. DePrince, III,  
 R. A. DiStasio Jr.,  A. Dreuw,  B. D. Dunietz,  T. R. Furlani,  
 W. A. Goddard III,  S. Grimme,  S. Hammes-Schiffer,  T. Head-Gordon,  
 W. J. Hehre,  Chao-Ping Hsu,  T.-C. Jagau,  Yousung Jung,  A. Klamt,  
 Jing Kong,  D. S. Lambrecht,  Xiangyuan Li,  WanZhen Liang,  N. J. Mayhall,  
 C. W. McCurdy,  J. B. Neaton,  T. Neudecker,  C. Ochsenfeld,  
 J. A. Parkhill,  R. Peverati,  V. A. Rassolov,  Haisheng Ren,  Yihan Shao,  
 L. V. Slipchenko,  R. P. Steele,  J. E. Subotnik,  A. J. W. Thom,  
 A. Tkatchenko,  D. G. Truhlar,  T. Van Voorhis,  Fan Wang,  
 T. A. Wesolowski,  K. B. Whaley,  H. L. Woodcock III,  P. M. Zimmerman,  
 S. Faraji,  P. M. W. Gill,  M. Head-Gordon,  J. M. Herbert,  A. I. Krylov

 Contributors to earlier versions of Q-Chem not listed above: 
 R. D. Adamson,  B. Austin,  R. Baer,  J. Baker,  G. J. O. Beran,  
 K. Brandhorst,  S. T. Brown,  E. F. C. Byrd,  Arup K. Chakraborty,  
 G. K. L. Chan,  Chun-Min Chang,  Yunqing Chen,  C.-L. Cheng,  
 Siu Hung Chien,  D. M. Chipman,  D. L. Crittenden,  H. Dachsel,  
 R. J. Doerksen,  A. D. Dutoi,  R. G. Edgar,  J. Fosso-Tande,  
 L. Fusti-Molnar,  D. Ghosh,  A. Ghysels,  A. Golubeva-Zadorozhnaya,  
 J. Gonthier,  M. S. Gordon,  S. R. Gwaltney,  G. Hawkins,  J. E. Herr,  
 A. Heyden,  S. Hirata,  E. G. Hohenstein,  G. Kedziora,  F. J. Keil,  
 C. Kelley,  Jihan Kim,  R. A. King,  R. Z. Khaliullin,  P. P. Korambath,  
 W. Kurlancheek,  A. Laurent,  A. M. Lee,  M. S. Lee,  S. V. Levchenko,  
 Ching Yeh Lin,  D. Liotard,  E. Livshits,  R. C. Lochan,  I. Lotan,  
 L. A. Martinez-Martinez,  P. E. Maslen,  N. Nair,  D. P. O'Neill,  
 D. Neuhauser,  E. Neuscamman,  C. M. Oana,  R. Olivares-Amaya,  R. Olson,  
 T. M. Perrine,  B. Peters,  P. A. Pieniazek,  A. Prociuk,  Y. M. Rhee,  
 J. Ritchie,  M. A. Rohrdanz,  E. Rosta,  N. J. Russ,  H. F. Schaefer III,  
 M. W. Schmidt,  N. E. Schultz,  S. Sharma,  N. Shenvi,  C. D. Sherrill,  
 A. C. Simmonett,  A. Sodt,  T. Stein,  D. Stuck,  K. S. Thanthiriwatte,  
 V. Vanovschi,  L. Vogt,  Tao Wang,  A. Warshel,  M. A. Watson,  
 C. F. Williams,  Q. Wu,  X. Xu,  Jun Yang,  W. Zhang,  Yan Zhao

   Please cite Q-Chem as follows:
  "Software for the frontiers of quantum chemistry:
   An overview of developments in the Q-Chem 5 package"
   J. Chem. Phys. 155, 084801 (2021)
   https://doi.org/10.1063/5.0055522 (open access)

 Q-Chem 6.0.1 for Intel X86 EM64T Linux

 Parts of Q-Chem use Armadillo 9.900.5 (Nocturnal Misbehaviour).
 http://arma.sourceforge.net/

 Q-Chem begins on Wed Oct 25 18:23:59 2023  

 Host: atlas-121
0

     Scratch files written to ./qchem184002//
 Processing $rem in /scratch/abel/SOFTWARE/qchem/config/preferences:
 Processing $rem in /dipc/acebg/.qchemrc:

 Checking the input file for inconsistencies... 	...done.

--------------------------------------------------------------
User input:
--------------------------------------------------------------
$comment
 RAS-SF CALCULATION
$end

$molecule
1 2    !charge and multiplicity
O1
H1 O1 oh
H2 O1 oh H1 hoh

oh = 0.997
hoh = 109.17
$end

$rem
!**CALCULATION TYPE***     
JOBTYPE            sp    
EXCHANGE           HF
CORRELATION        RASCI    !RASCI=Casanova; RASCI2=Zimmerman
BASIS              STO-3G

!***SCF REFERENCE***
UNRESTRICTED       FALSE
!SCF_ALGORITHM      DIIS_GDM !DIIS,DM,DIIS_DM,GDM,DIIS_GDM,GD
SCF_FINAL_PRINT     1 !0,1,2,3

!****RAS-SF****
RAS_ROOTS          5       !number of RAS-CI roots to be computed
SET_ITER           50     !number of iterations in RASCI
RAS_ELEC           9       !number of electrons in RAS2
RAS_ELEC_ALPHA     5      !spin-α electrons in RAS2 
RAS_ELEC_BETA      4      !spin-β electrons in RAS2
RAS_ACT            7       !number of orbitals in RAS2 
RAS_OCC            0       !number of orbitals in RAS1
CALC_SOC           TRUE   !calculate SOC for EOM-CC, RAS-CI, ADC, TDDFT/TDA and TDDFT
RAS_SOC_SYM_DENS   TRUE   !averaging of α and β densities
$end                                           
--------------------------------------------------------------
 ----------------------------------------------------------------
             Standard Nuclear Orientation (Angstroms)
    I     Atom           X                Y                Z
 ----------------------------------------------------------------
    1      O       0.0000000000     0.0000000000     0.1155512138
    2      H      -0.8125311840    -0.0000000000    -0.4622048550
    3      H       0.8125311840    -0.0000000000    -0.4622048550
 ----------------------------------------------------------------
 Molecular Point Group                 C2v   NOp =  4
 Largest Abelian Subgroup              C2v   NOp =  4
 Nuclear Repulsion Energy =           8.81794733 hartrees
 There are        5 alpha and        4 beta electrons
 Requested basis set is STO-3G
 There are 4 shells and 7 basis functions

 Total QAlloc Memory Limit   2000 MB
 Mega-Array Size       188 MB
 MEM_STATIC part       192 MB


                       Distance Matrix (Angstroms)
             O (  1)   H (  2)
   H (  2)  0.997000
   H (  3)  0.997000  1.625062
 
 A cutoff of  1.0D-09 yielded     10 shell pairs
 There are        34 function pairs
 Smallest overlap matrix eigenvalue = 3.69E-01

 Scale SEOQF with 1.000000e+00/1.000000e+00/1.000000e+00

 Standard Electronic Orientation quadrupole field applied
 Nucleus-field energy     =    -0.0000000001 hartrees
 Guess from superposition of atomic densities
 Warning:  Energy on first SCF cycle will be non-variational
 SAD guess density has 10.000000 electrons

 -----------------------------------------------------------------------
  General SCF calculation program by
  Eric Jon Sundstrom, Paul Horn, Yuezhi Mao, Dmitri Zuev, Alec White,
  David Stuck, Shaama M.S., Shane Yost, Joonho Lee, David Small,
  Daniel Levine, Susi Lehtola, Hugh Burton, Evgeny Epifanovsky,
  Bang C. Huynh
 -----------------------------------------------------------------------
 Hartree-Fock
 Orthonormalizing orbitals
 A restricted open-shell SCF calculation will be
 performed using GDM
 SCF converges when RMS gradient is below 1.0e-05
 ---------------------------------------
  Cycle       Energy        RMS Gradient
 ---------------------------------------
    1     -73.3635147193      7.08e-01   Descent step
    2     -73.6056312366      4.80e-01   Descent step
    3     -73.7368520924      2.15e-01   Normal BFGS step
Fro norm of D 1.079978425681e+00
transformation scaled by 2
    4     -73.7696809423      2.77e-01   Dog-leg BFGS step
    5     -74.1964929694      7.07e-01   Descent step
    6     -74.4164926355      4.43e-01   Descent step
    7     -74.5374703874      2.36e-01   Dog-leg BFGS step
    8     -74.5869005122      4.17e-02   Normal BFGS step
    9     -74.5890447905      4.57e-03   Normal BFGS step
   10     -74.5890695625      6.95e-04   Normal BFGS step
   11     -74.5890704876      8.08e-05   Normal BFGS step
   12     -74.5890704947      1.48e-05   Normal BFGS step
   13     -74.5890704950      2.79e-06  Convergence criterion met
The disked orbital energies are calculated using alpha and beta Focks
 ---------------------------------------
 Alpha HF Exchange    Energy =  -4.62961310953730
 Beta HF Exchange     Energy =  -3.95691977215189
 Nuclear Attraction   Energy =   0.00000000000000
 One-Electron (alpha) Energy = -61.65834291337190
 One-Electron (beta)  Energy = -54.46822629887320
 Total Coulomb        Energy =  41.30608427296401
 Final Alpha MO Eigenvalues
            1           2           3           4           5           6
    1 -20.9564318  -1.8227426  -1.1498602  -0.9724427  -1.1353990   0.0748869
            7
    1   0.1811098
 Final Beta MO Eigenvalues
            1           2           3           4           5           6
    1 -20.9279095  -1.6999410  -1.1068727  -0.9158670  -0.2917864   0.1236627
            7
    1   0.2328730
 SCF time:   CPU 0.08s  wall 4.00s 
<S^2> =          0.750000000
 SCF   energy in the final basis set =      -74.5890704950
 Total energy in the final basis set =      -74.5890704950
  
     ##========================================##
     ||                                        ||
     ||              R A S M A N 2             ||
     ||________________________________________||
     ||                                        ||
     ||  Author:                               ||
     ||                                        ||
     ||        David Casanova (2010)           ||
     ||                                        ||
     ##========================================##
  
  ***************************************************
  *  RAS-CI Dimensions:                             *
  *                                                 *
  *  Active Elec.:   9 ( 5, 4)   Active Orb.:   7   *
  *  Doubly Occ. :   0           Doubly Vir.:   0   *
  *  Frozen Occ. :   0           Frozen Vir.:   0   *
  *                                                 *
  *  Total CI configurations:       735             * 
  *    Active configurations:       735             * 
  *      Hole configurations:         0             * 
  *  Particle configurations:         0             * 
  *                                                 *
  *   Requested states:        5                    *
  *  Spin multiplicity: Any multiplicity            *
  *                                                 *
  ***************************************************
  
 
Direct CI diagonalization
 ---------------------------------------------------
 Iter    Rts Conv    Rts Left    Ttl Dev     Max Dev
 ---------------------------------------------------
   1         0           5      0.054344    0.013469
   2         0           5      0.073326    0.020376
   3         0           5      0.030491    0.009512
   4         0           5      0.028535    0.008265
   5         0           5      0.018279    0.010148
   6         0           5      0.020094    0.009574
   7         0           5      0.020173    0.013289
   8         0           5      0.009150    0.005545
   9         0           5      0.039146    0.034404
  10         0           5      0.015442    0.012722
  11         0           5      0.022812    0.018782
  12         0           5      0.012544    0.011194
  13         0           5      0.021655    0.019609
  14         0           5      0.010349    0.009419
  15         0           5      0.010825    0.010147
  16         0           5      0.010997    0.010428
  17         0           5      0.007283    0.006941
  18         0           5      0.005809    0.005448
  19         0           5      0.007247    0.007062
  20         1           4      0.003609    0.003451
  21         1           4      0.004032    0.003942
  22         1           4      0.002378    0.002324
  23         1           4      0.001749    0.001691
  24         2           3      0.001696    0.001676
  25         2           3      0.000713    0.000686
  26         2           3      0.000553    0.000536
  27         2           3      0.000387    0.000378
  28         2           3      0.000393    0.000385
  29         2           3      0.000462    0.000457
  30         3           2      0.000236    0.000232
  31         4           1      0.000449    0.000447
  32         4           1      0.000352    0.000351
  33         4           1      0.000637    0.000635
  34         4           1      0.000141    0.000140
  35         4           1      0.000221    0.000219
  36         4           1      0.000052    0.000051
  37         4           1      0.000073    0.000072
  38         4           1      0.000013    0.000011
  39         4           1      0.000017    0.000016
  40         4           1      0.000005    0.000003
  41         4           1      0.000007    0.000005
  42         4           1      0.000003    0.000001
  43         4           1      0.000003    0.000002
  44         5           0      0.000002    0.000001    Roots Converged
 ---------------------------------------------------
   
**************************************************
 RAS-CI total energy for state   1:    -74.708634189344
  Excitation energy (eV) =  0.000000000000
  State symmetry: B2    (C2v      )
  <S^2>      :  0.7500
  Dipole Moment:    0.0000 X    -0.0000 Y     0.8937 Z
  Amplitudes : 
  
 | HOLE  | ALPHA   | BETA    | PART  |    AMPLITUDE 
--------------------------------------------------
 |       | 1111100 | 1110100 |       |     9.8684523894355E-01
--------------------------------------------------
*** Contributions RASCI wfn    Active: 100.00
                                 Hole:   0.00
                                 Part:   0.00

      Mulliken population analysis 
 ---------------------------------------------------
   Atom    Charge (a.u.)   Spin (a.u.)  
 ---------------------------------------------------
   1  O    0.167299        1.095115 
   2  H    0.416350       -0.047558 
   3  H    0.416350       -0.047558 
 ---------------------------------------------------
   Sum:    1.000000        1.000000 
 ---------------------------------------------------
 
  
**************************************************
 RAS-CI total energy for state   2:    -74.625014610343
  Excitation energy (eV) =  2.275404513587
  State symmetry: A1    (C2v      )
  <S^2>      :  0.7500
  Dipole Moment:    0.0000 X    -0.0000 Y     0.6962 Z
  Trans. Moment:    0.0000 X     0.1777 Y    -0.0000 Z
  Strength   :  0.001760
  Amplitudes : 
  
 | HOLE  | ALPHA   | BETA    | PART  |    AMPLITUDE 
--------------------------------------------------
 |       | 1111100 | 1111000 |       |     9.9046245955899E-01
--------------------------------------------------
*** Contributions RASCI wfn    Active: 100.00
                                 Hole:   0.00
                                 Part:   0.00

      Mulliken population analysis 
 ---------------------------------------------------
   Atom    Charge (a.u.)   Spin (a.u.)  
 ---------------------------------------------------
   1  O    0.097629        0.946366 
   2  H    0.451186        0.026817 
   3  H    0.451186        0.026817 
 ---------------------------------------------------
   Sum:    1.000000        1.000000 
 ---------------------------------------------------
 
  
**************************************************
 RAS-CI total energy for state   3:    -74.414732557913
  Excitation energy (eV) =  7.997470289820
  State symmetry: B1    (C2v      )
  <S^2>      :  0.7500
  Dipole Moment:    0.0000 X     0.0000 Y     1.0789 Z
  Trans. Moment:   -0.0000 X     0.0000 Y    -0.0000 Z
  Strength   :  0.000000
  Amplitudes : 
  
 | HOLE  | ALPHA   | BETA    | PART  |    AMPLITUDE 
--------------------------------------------------
 |       | 1111100 | 1101100 |       |     9.7914039584391E-01
 |       | 1111010 | 1101100 |       |     1.0856302611574E-01
--------------------------------------------------
*** Contributions RASCI wfn    Active: 100.00
                                 Hole:   0.00
                                 Part:   0.00

      Mulliken population analysis 
 ---------------------------------------------------
   Atom    Charge (a.u.)   Spin (a.u.)  
 ---------------------------------------------------
   1  O   -0.032442        0.538413 
   2  H    0.516221        0.230793 
   3  H    0.516221        0.230793 
 ---------------------------------------------------
   Sum:    1.000000        1.000000 
 ---------------------------------------------------
 
  
**************************************************
 RAS-CI total energy for state   4:    -74.127877928054
  Excitation energy (eV) = 15.803181910472
  State symmetry: A1    (C2v      )
  <S^2>      :  0.7500
  Dipole Moment:    0.0000 X    -0.0000 Y     0.1547 Z
  Trans. Moment:    0.0000 X     0.0881 Y     0.0000 Z
  Strength   :  0.003004
  Amplitudes : 
  
 | HOLE  | ALPHA   | BETA    | PART  |    AMPLITUDE 
--------------------------------------------------
 |       | 1111100 | 1011100 |       |    -1.8488289591435E-01
 |       | 1111010 | 1111000 |       |    -1.8552739073274E-01
 |       | 1110110 | 1110100 |       |     9.3588510960116E-01
 |       | 1110110 | 1100101 |       |    -1.3207275496621E-01
--------------------------------------------------
*** Contributions RASCI wfn    Active: 100.00
                                 Hole:   0.00
                                 Part:   0.00

      Mulliken population analysis 
 ---------------------------------------------------
   Atom    Charge (a.u.)   Spin (a.u.)  
 ---------------------------------------------------
   1  O    0.628183        0.078190 
   2  H    0.185908        0.460905 
   3  H    0.185908        0.460905 
 ---------------------------------------------------
   Sum:    1.000000        1.000000 
 ---------------------------------------------------
 
  
**************************************************
 RAS-CI total energy for state   5:    -74.115428918671
  Excitation energy (eV) = 16.141936691094
  State symmetry: B2    (C2v      )
  <S^2>      :  0.7500
  Dipole Moment:   -0.0000 X    -0.0000 Y    -0.0288 Z
  Trans. Moment:   -0.0000 X     0.0000 Y    -0.2326 Z
  Strength   :  0.021390
  Amplitudes : 
  
 | HOLE  | ALPHA   | BETA    | PART  |    AMPLITUDE 
--------------------------------------------------
 |       | 1111100 | 1110010 |       |     7.4712525630661E-01
 |       | 1111010 | 1110100 |       |     1.7903831926423E-01
 |       | 1110110 | 1111000 |       |    -5.6808693704332E-01
 |       | 1101101 | 1110100 |       |     1.2087411895693E-01
 |       | 1101101 | 1110010 |       |     1.0941147911794E-01
--------------------------------------------------
*** Contributions RASCI wfn    Active: 100.00
                                 Hole:   0.00
                                 Part:   0.00

      Mulliken population analysis 
 ---------------------------------------------------
   Atom    Charge (a.u.)   Spin (a.u.)  
 ---------------------------------------------------
   1  O    0.544229        1.134354 
   2  H    0.227886       -0.067177 
   3  H    0.227886       -0.067177 
 ---------------------------------------------------
   Sum:    1.000000        1.000000 
 ---------------------------------------------------
 
  
--------------------------------------------------
 Interstate Transition Properties
--------------------------------------------------
State A: Root  1
State B: Root  2
  
Angular momentum components
< B | Lx | A > =    -0.950822702i
< B | Ly | A > =     0.000000000i
< B | Lz | A > =    -0.000000000i
  
Norm of one-particle transition density matrix
||gamma^AB||_total       =  0.993367
||gamma^AB||_symmetrized =  0.702344
||gamma^AB||_anti-symm   =  0.702490
  
Spin-orbit couplings
 Using HF (reference) density for the 2-elec mean-field SOC contribution
KET: S',Sz' (Root   1) =  0.500 0.500
BRA: S ,Sz  (Root   2) =  0.500 0.500
 1e Reduced matrix elements (cm-1)
<S|| Hso(L-) ||S'> =    -0.0000000000    88.1194271309
<S|| Hso(L0) ||S'> =     0.0000000000    -0.0000000000
<S|| Hso(L+) ||S'> =    -0.0000000000   -88.1194271309
 1-elec SOC matrix (cm-1): < B(S,Sz) | Hso(1e) | A(S',Sz') >
                     |Sz'=-0.50>              |Sz'= 0.50>
 <Sz=-0.50|    0.000000   -0.000000i     0.000000   71.949211i
 <Sz= 0.50|   -0.000000   71.949211i    -0.000000    0.000000i
1-elec SOCC =   101.751549950 cm-1
 Averagin spin alpha/beta reference densities
 2e-SOMF Reduced matrix elements (cm-1)
<S|| Hso(L-) ||S'> =     0.0000000000   -34.7910517635
<S|| Hso(L0) ||S'> =     0.0000000000     0.0000000000
<S|| Hso(L+) ||S'> =     0.0000000000    34.7910517635
 2-elec mean-field SOC matrix (cm-1): < B(S,Sz) | Hso(2e-mf) | A(S',Sz') >
                     |Sz'=-0.50>              |Sz'= 0.50>
 <Sz=-0.50|    0.000000    0.000000i    -0.000000  -28.406775i
 <Sz= 0.50|    0.000000  -28.406775i     0.000000   -0.000000i
 Total mean-field SOC matrix (cm-1): < B(S,Sz) | Hsomf | A(S',Sz') >
                     |Sz'=-0.50>              |Sz'= 0.50>
 <Sz=-0.50|    0.000000   -0.000000i     0.000000   43.542436i
 <Sz= 0.50|   -0.000000   43.542436i    -0.000000    0.000000i
Mean-Field SOCC =    61.578303748 cm-1
   
**************************************************
State A: Root  1
State B: Root  3
  
Angular momentum components
< B | Lx | A > =     0.000000000i
< B | Ly | A > =     0.000000000i
< B | Lz | A > =     0.903038347i
  
Norm of one-particle transition density matrix
||gamma^AB||_total       =  0.980704
||gamma^AB||_symmetrized =  0.696076
||gamma^AB||_anti-symm   =  0.690839
  
Spin-orbit couplings
 Using HF (reference) density for the 2-elec mean-field SOC contribution
KET: S',Sz' (Root   1) =  0.500 0.500
BRA: S ,Sz  (Root   3) =  0.500 0.500
 1e Reduced matrix elements (cm-1)
<S|| Hso(L-) ||S'> =     0.0000000007     0.0000000000
<S|| Hso(L0) ||S'> =     0.0000000000   103.9376062339
<S|| Hso(L+) ||S'> =     0.0000000007    -0.0000000000
 1-elec SOC matrix (cm-1): < B(S,Sz) | Hso(1e) | A(S',Sz') >
                     |Sz'=-0.50>              |Sz'= 0.50>
 <Sz=-0.50|    0.000000   60.008405i    -0.000000    0.000000i
 <Sz= 0.50|    0.000000    0.000000i     0.000000  -60.008405i
1-elec SOCC =    84.864700120 cm-1
 2e-SOMF Reduced matrix elements (cm-1)
<S|| Hso(L-) ||S'> =    -0.0000000003    -0.0000000000
<S|| Hso(L0) ||S'> =     0.0000000000   -39.7951167555
<S|| Hso(L+) ||S'> =    -0.0000000003     0.0000000000
 2-elec mean-field SOC matrix (cm-1): < B(S,Sz) | Hso(2e-mf) | A(S',Sz') >
                     |Sz'=-0.50>              |Sz'= 0.50>
 <Sz=-0.50|    0.000000  -22.975721i     0.000000   -0.000000i
 <Sz= 0.50|   -0.000000   -0.000000i    -0.000000   22.975721i
 Total mean-field SOC matrix (cm-1): < B(S,Sz) | Hsomf | A(S',Sz') >
                     |Sz'=-0.50>              |Sz'= 0.50>
 <Sz=-0.50|    0.000000   37.032684i    -0.000000    0.000000i
 <Sz= 0.50|    0.000000    0.000000i     0.000000  -37.032684i
Mean-Field SOCC =    52.372123351 cm-1
   
**************************************************
State A: Root  1
State B: Root  4
  
Angular momentum components
< B | Lx | A > =     0.250775149i
< B | Ly | A > =     0.000000000i
< B | Lz | A > =    -0.000000000i
  
Norm of one-particle transition density matrix
||gamma^AB||_total       =  0.946521
||gamma^AB||_symmetrized =  0.680409
||gamma^AB||_anti-symm   =  0.657986
  
Spin-orbit couplings
 Using HF (reference) density for the 2-elec mean-field SOC contribution
KET: S',Sz' (Root   1) =  0.500 0.500
BRA: S ,Sz  (Root   4) =  0.500 0.500
 1e Reduced matrix elements (cm-1)
<S|| Hso(L-) ||S'> =     0.0000000000    48.0134242099
<S|| Hso(L0) ||S'> =     0.0000000000    -0.0000000000
<S|| Hso(L+) ||S'> =     0.0000000000   -48.0134242099
 1-elec SOC matrix (cm-1): < B(S,Sz) | Hso(1e) | A(S',Sz') >
                     |Sz'=-0.50>              |Sz'= 0.50>
 <Sz=-0.50|    0.000000   -0.000000i    -0.000000   39.202797i
 <Sz= 0.50|    0.000000   39.202797i     0.000000    0.000000i
1-elec SOCC =    55.441126785 cm-1
 2e-SOMF Reduced matrix elements (cm-1)
<S|| Hso(L-) ||S'> =    -0.0000000000   -17.2124095741
<S|| Hso(L0) ||S'> =     0.0000000000     0.0000000000
<S|| Hso(L+) ||S'> =    -0.0000000000    17.2124095741
 2-elec mean-field SOC matrix (cm-1): < B(S,Sz) | Hso(2e-mf) | A(S',Sz') >
                     |Sz'=-0.50>              |Sz'= 0.50>
 <Sz=-0.50|    0.000000    0.000000i     0.000000  -14.053874i
 <Sz= 0.50|   -0.000000  -14.053874i    -0.000000   -0.000000i
 Total mean-field SOC matrix (cm-1): < B(S,Sz) | Hsomf | A(S',Sz') >
                     |Sz'=-0.50>              |Sz'= 0.50>
 <Sz=-0.50|    0.000000   -0.000000i    -0.000000   25.148923i
 <Sz= 0.50|    0.000000   25.148923i     0.000000    0.000000i
Mean-Field SOCC =    35.565948183 cm-1
   
**************************************************
State A: Root  1
State B: Root  5
  
Angular momentum components
< B | Lx | A > =    -0.000000000i
< B | Ly | A > =    -0.000000000i
< B | Lz | A > =     0.000000000i
  
Norm of one-particle transition density matrix
||gamma^AB||_total       =  0.786710
||gamma^AB||_symmetrized =  0.557587
||gamma^AB||_anti-symm   =  0.554987
  
Spin-orbit couplings
 Using HF (reference) density for the 2-elec mean-field SOC contribution
KET: S',Sz' (Root   1) =  0.500 0.500
BRA: S ,Sz  (Root   5) =  0.500 0.500
 1e Reduced matrix elements (cm-1)
<S|| Hso(L-) ||S'> =     0.0000000000    -0.0000000457
<S|| Hso(L0) ||S'> =     0.0000000000    -0.0000000000
<S|| Hso(L+) ||S'> =     0.0000000000     0.0000000457
 1-elec SOC matrix (cm-1): < B(S,Sz) | Hso(1e) | A(S',Sz') >
                     |Sz'=-0.50>              |Sz'= 0.50>
 <Sz=-0.50|    0.000000   -0.000000i    -0.000000   -0.000000i
 <Sz= 0.50|    0.000000   -0.000000i     0.000000    0.000000i
1-elec SOCC =     0.000000053 cm-1
 2e-SOMF Reduced matrix elements (cm-1)
<S|| Hso(L-) ||S'> =    -0.0000000000     0.0000000164
<S|| Hso(L0) ||S'> =     0.0000000000     0.0000000000
<S|| Hso(L+) ||S'> =    -0.0000000000    -0.0000000164
 2-elec mean-field SOC matrix (cm-1): < B(S,Sz) | Hso(2e-mf) | A(S',Sz') >
                     |Sz'=-0.50>              |Sz'= 0.50>
 <Sz=-0.50|    0.000000    0.000000i     0.000000    0.000000i
 <Sz= 0.50|   -0.000000    0.000000i    -0.000000   -0.000000i
 Total mean-field SOC matrix (cm-1): < B(S,Sz) | Hsomf | A(S',Sz') >
                     |Sz'=-0.50>              |Sz'= 0.50>
 <Sz=-0.50|    0.000000   -0.000000i    -0.000000   -0.000000i
 <Sz= 0.50|    0.000000   -0.000000i     0.000000    0.000000i
Mean-Field SOCC =     0.000000034 cm-1
   
**************************************************
State A: Root  2
State B: Root  1
  
Angular momentum components
< B | Lx | A > =     0.950822702i
< B | Ly | A > =    -0.000000000i
< B | Lz | A > =     0.000000000i
  
Norm of one-particle transition density matrix
||gamma^AB||_total       =  0.993367
||gamma^AB||_symmetrized =  0.702344
||gamma^AB||_anti-symm   =  0.702490
  
Spin-orbit couplings
 Using HF (reference) density for the 2-elec mean-field SOC contribution
KET: S',Sz' (Root   2) =  0.500 0.500
BRA: S ,Sz  (Root   1) =  0.500 0.500
 1e Reduced matrix elements (cm-1)
<S|| Hso(L-) ||S'> =     0.0000000000   -88.1194271309
<S|| Hso(L0) ||S'> =     0.0000000000     0.0000000000
<S|| Hso(L+) ||S'> =     0.0000000000    88.1194271309
 1-elec SOC matrix (cm-1): < B(S,Sz) | Hso(1e) | A(S',Sz') >
                     |Sz'=-0.50>              |Sz'= 0.50>
 <Sz=-0.50|    0.000000    0.000000i    -0.000000  -71.949211i
 <Sz= 0.50|    0.000000  -71.949211i     0.000000   -0.000000i
1-elec SOCC =   101.751549950 cm-1
 2e-SOMF Reduced matrix elements (cm-1)
<S|| Hso(L-) ||S'> =    -0.0000000000    34.7910517635
<S|| Hso(L0) ||S'> =     0.0000000000    -0.0000000000
<S|| Hso(L+) ||S'> =    -0.0000000000   -34.7910517635
 2-elec mean-field SOC matrix (cm-1): < B(S,Sz) | Hso(2e-mf) | A(S',Sz') >
                     |Sz'=-0.50>              |Sz'= 0.50>
 <Sz=-0.50|    0.000000   -0.000000i     0.000000   28.406775i
 <Sz= 0.50|   -0.000000   28.406775i    -0.000000    0.000000i
 Total mean-field SOC matrix (cm-1): < B(S,Sz) | Hsomf | A(S',Sz') >
                     |Sz'=-0.50>              |Sz'= 0.50>
 <Sz=-0.50|    0.000000    0.000000i    -0.000000  -43.542436i
 <Sz= 0.50|    0.000000  -43.542436i     0.000000   -0.000000i
Mean-Field SOCC =    61.578303748 cm-1
   
**************************************************
State A: Root  2
State B: Root  3
  
Angular momentum components
< B | Lx | A > =     0.000000000i
< B | Ly | A > =     0.858006503i
< B | Lz | A > =    -0.000000000i
  
Norm of one-particle transition density matrix
||gamma^AB||_total       =  0.980044
||gamma^AB||_symmetrized =  0.696034
||gamma^AB||_anti-symm   =  0.689944
  
Spin-orbit couplings
 Using HF (reference) density for the 2-elec mean-field SOC contribution
KET: S',Sz' (Root   2) =  0.500 0.500
BRA: S ,Sz  (Root   3) =  0.500 0.500
 1e Reduced matrix elements (cm-1)
<S|| Hso(L-) ||S'> =   -63.2831281478    -0.0000000000
<S|| Hso(L0) ||S'> =     0.0000000000    -0.0000000065
<S|| Hso(L+) ||S'> =   -63.2831281478     0.0000000000
 1-elec SOC matrix (cm-1): < B(S,Sz) | Hso(1e) | A(S',Sz') >
                     |Sz'=-0.50>              |Sz'= 0.50>
 <Sz=-0.50|    0.000000   -0.000000i    51.670458   -0.000000i
 <Sz= 0.50|  -51.670458   -0.000000i    -0.000000    0.000000i
1-elec SOCC =    73.073062143 cm-1
 2e-SOMF Reduced matrix elements (cm-1)
<S|| Hso(L-) ||S'> =    27.6134649906     0.0000000000
<S|| Hso(L0) ||S'> =     0.0000000000     0.0000000023
<S|| Hso(L+) ||S'> =    27.6134649906    -0.0000000000
 2-elec mean-field SOC matrix (cm-1): < B(S,Sz) | Hso(2e-mf) | A(S',Sz') >
                     |Sz'=-0.50>              |Sz'= 0.50>
 <Sz=-0.50|    0.000000    0.000000i   -22.546300    0.000000i
 <Sz= 0.50|   22.546300    0.000000i     0.000000   -0.000000i
 Total mean-field SOC matrix (cm-1): < B(S,Sz) | Hsomf | A(S',Sz') >
                     |Sz'=-0.50>              |Sz'= 0.50>
 <Sz=-0.50|    0.000000   -0.000000i    29.124158   -0.000000i
 <Sz= 0.50|  -29.124158   -0.000000i    -0.000000    0.000000i
Mean-Field SOCC =    41.187779251 cm-1
   
**************************************************
State A: Root  2
State B: Root  4
  
Angular momentum components
< B | Lx | A > =    -0.000000000i
< B | Ly | A > =    -0.000000000i
< B | Lz | A > =     0.000000000i
  
Norm of one-particle transition density matrix
||gamma^AB||_total       =  0.266876
||gamma^AB||_symmetrized =  0.190989
||gamma^AB||_anti-symm   =  0.186403
  
Spin-orbit couplings
 Using HF (reference) density for the 2-elec mean-field SOC contribution
KET: S',Sz' (Root   2) =  0.500 0.500
BRA: S ,Sz  (Root   4) =  0.500 0.500
 1e Reduced matrix elements (cm-1)
<S|| Hso(L-) ||S'> =     0.0000000000     0.0000000211
<S|| Hso(L0) ||S'> =     0.0000000000     0.0000000000
<S|| Hso(L+) ||S'> =     0.0000000000    -0.0000000211
 1-elec SOC matrix (cm-1): < B(S,Sz) | Hso(1e) | A(S',Sz') >
                     |Sz'=-0.50>              |Sz'= 0.50>
 <Sz=-0.50|    0.000000    0.000000i    -0.000000    0.000000i
 <Sz= 0.50|    0.000000    0.000000i     0.000000   -0.000000i
1-elec SOCC =     0.000000024 cm-1
 2e-SOMF Reduced matrix elements (cm-1)
<S|| Hso(L-) ||S'> =    -0.0000000000    -0.0000000077
<S|| Hso(L0) ||S'> =     0.0000000000    -0.0000000000
<S|| Hso(L+) ||S'> =    -0.0000000000     0.0000000077
 2-elec mean-field SOC matrix (cm-1): < B(S,Sz) | Hso(2e-mf) | A(S',Sz') >
                     |Sz'=-0.50>              |Sz'= 0.50>
 <Sz=-0.50|    0.000000   -0.000000i     0.000000   -0.000000i
 <Sz= 0.50|   -0.000000   -0.000000i    -0.000000    0.000000i
 Total mean-field SOC matrix (cm-1): < B(S,Sz) | Hsomf | A(S',Sz') >
                     |Sz'=-0.50>              |Sz'= 0.50>
 <Sz=-0.50|    0.000000    0.000000i    -0.000000    0.000000i
 <Sz= 0.50|    0.000000    0.000000i     0.000000   -0.000000i
Mean-Field SOCC =     0.000000015 cm-1
   
**************************************************
State A: Root  2
State B: Root  5
  
Angular momentum components
< B | Lx | A > =    -0.360395486i
< B | Ly | A > =     0.000000000i
< B | Lz | A > =     0.000000000i
  
Norm of one-particle transition density matrix
||gamma^AB||_total       =  0.939288
||gamma^AB||_symmetrized =  0.651732
||gamma^AB||_anti-symm   =  0.676393
  
Spin-orbit couplings
 Using HF (reference) density for the 2-elec mean-field SOC contribution
KET: S',Sz' (Root   2) =  0.500 0.500
BRA: S ,Sz  (Root   5) =  0.500 0.500
 1e Reduced matrix elements (cm-1)
<S|| Hso(L-) ||S'> =     0.0000000000    13.5459022229
<S|| Hso(L0) ||S'> =     0.0000000000     0.0000000000
<S|| Hso(L+) ||S'> =     0.0000000000   -13.5459022229
 1-elec SOC matrix (cm-1): < B(S,Sz) | Hso(1e) | A(S',Sz') >
                     |Sz'=-0.50>              |Sz'= 0.50>
 <Sz=-0.50|    0.000000    0.000000i    -0.000000   11.060183i
 <Sz= 0.50|    0.000000   11.060183i     0.000000   -0.000000i
1-elec SOCC =    15.641460590 cm-1
 2e-SOMF Reduced matrix elements (cm-1)
<S|| Hso(L-) ||S'> =    -0.0000000000    -5.0008167948
<S|| Hso(L0) ||S'> =     0.0000000000    -0.0000000000
<S|| Hso(L+) ||S'> =    -0.0000000000     5.0008167948
 2-elec mean-field SOC matrix (cm-1): < B(S,Sz) | Hso(2e-mf) | A(S',Sz') >
                     |Sz'=-0.50>              |Sz'= 0.50>
 <Sz=-0.50|    0.000000   -0.000000i     0.000000   -4.083150i
 <Sz= 0.50|   -0.000000   -4.083150i    -0.000000    0.000000i
 Total mean-field SOC matrix (cm-1): < B(S,Sz) | Hsomf | A(S',Sz') >
                     |Sz'=-0.50>              |Sz'= 0.50>
 <Sz=-0.50|    0.000000    0.000000i    -0.000000    6.977033i
 <Sz= 0.50|    0.000000    6.977033i     0.000000   -0.000000i
Mean-Field SOCC =     9.867014744 cm-1
   
**************************************************
State A: Root  3
State B: Root  1
  
Angular momentum components
< B | Lx | A > =    -0.000000000i
< B | Ly | A > =    -0.000000000i
< B | Lz | A > =    -0.903038347i
  
Norm of one-particle transition density matrix
||gamma^AB||_total       =  0.980704
||gamma^AB||_symmetrized =  0.696076
||gamma^AB||_anti-symm   =  0.690839
  
Spin-orbit couplings
 Using HF (reference) density for the 2-elec mean-field SOC contribution
KET: S',Sz' (Root   3) =  0.500 0.500
BRA: S ,Sz  (Root   1) =  0.500 0.500
 1e Reduced matrix elements (cm-1)
<S|| Hso(L-) ||S'> =    -0.0000000007    -0.0000000000
<S|| Hso(L0) ||S'> =     0.0000000000  -103.9376062339
<S|| Hso(L+) ||S'> =    -0.0000000007     0.0000000000
 1-elec SOC matrix (cm-1): < B(S,Sz) | Hso(1e) | A(S',Sz') >
                     |Sz'=-0.50>              |Sz'= 0.50>
 <Sz=-0.50|    0.000000  -60.008405i     0.000000   -0.000000i
 <Sz= 0.50|   -0.000000   -0.000000i    -0.000000   60.008405i
1-elec SOCC =    84.864700120 cm-1
 2e-SOMF Reduced matrix elements (cm-1)
<S|| Hso(L-) ||S'> =     0.0000000003     0.0000000000
<S|| Hso(L0) ||S'> =     0.0000000000    39.7951167555
<S|| Hso(L+) ||S'> =     0.0000000003    -0.0000000000
 2-elec mean-field SOC matrix (cm-1): < B(S,Sz) | Hso(2e-mf) | A(S',Sz') >
                     |Sz'=-0.50>              |Sz'= 0.50>
 <Sz=-0.50|    0.000000   22.975721i    -0.000000    0.000000i
 <Sz= 0.50|    0.000000    0.000000i     0.000000  -22.975721i
 Total mean-field SOC matrix (cm-1): < B(S,Sz) | Hsomf | A(S',Sz') >
                     |Sz'=-0.50>              |Sz'= 0.50>
 <Sz=-0.50|    0.000000  -37.032684i     0.000000   -0.000000i
 <Sz= 0.50|   -0.000000   -0.000000i    -0.000000   37.032684i
Mean-Field SOCC =    52.372123351 cm-1
   
**************************************************
State A: Root  3
State B: Root  2
  
Angular momentum components
< B | Lx | A > =    -0.000000000i
< B | Ly | A > =    -0.858006503i
< B | Lz | A > =     0.000000000i
  
Norm of one-particle transition density matrix
||gamma^AB||_total       =  0.980044
||gamma^AB||_symmetrized =  0.696034
||gamma^AB||_anti-symm   =  0.689944
  
Spin-orbit couplings
 Using HF (reference) density for the 2-elec mean-field SOC contribution
KET: S',Sz' (Root   3) =  0.500 0.500
BRA: S ,Sz  (Root   2) =  0.500 0.500
 1e Reduced matrix elements (cm-1)
<S|| Hso(L-) ||S'> =    63.2831281478     0.0000000000
<S|| Hso(L0) ||S'> =     0.0000000000     0.0000000065
<S|| Hso(L+) ||S'> =    63.2831281478    -0.0000000000
 1-elec SOC matrix (cm-1): < B(S,Sz) | Hso(1e) | A(S',Sz') >
                     |Sz'=-0.50>              |Sz'= 0.50>
 <Sz=-0.50|    0.000000    0.000000i   -51.670458    0.000000i
 <Sz= 0.50|   51.670458    0.000000i     0.000000   -0.000000i
1-elec SOCC =    73.073062143 cm-1
 2e-SOMF Reduced matrix elements (cm-1)
<S|| Hso(L-) ||S'> =   -27.6134649906    -0.0000000000
<S|| Hso(L0) ||S'> =     0.0000000000    -0.0000000023
<S|| Hso(L+) ||S'> =   -27.6134649906     0.0000000000
 2-elec mean-field SOC matrix (cm-1): < B(S,Sz) | Hso(2e-mf) | A(S',Sz') >
                     |Sz'=-0.50>              |Sz'= 0.50>
 <Sz=-0.50|    0.000000   -0.000000i    22.546300   -0.000000i
 <Sz= 0.50|  -22.546300   -0.000000i    -0.000000    0.000000i
 Total mean-field SOC matrix (cm-1): < B(S,Sz) | Hsomf | A(S',Sz') >
                     |Sz'=-0.50>              |Sz'= 0.50>
 <Sz=-0.50|    0.000000    0.000000i   -29.124158    0.000000i
 <Sz= 0.50|   29.124158    0.000000i     0.000000   -0.000000i
Mean-Field SOCC =    41.187779251 cm-1
   
**************************************************
State A: Root  3
State B: Root  4
  
Angular momentum components
< B | Lx | A > =    -0.000000000i
< B | Ly | A > =     0.072337163i
< B | Lz | A > =    -0.000000000i
  
Norm of one-particle transition density matrix
||gamma^AB||_total       =  0.208171
||gamma^AB||_symmetrized =  0.154398
||gamma^AB||_anti-symm   =  0.139631
  
Spin-orbit couplings
 Using HF (reference) density for the 2-elec mean-field SOC contribution
KET: S',Sz' (Root   3) =  0.500 0.500
BRA: S ,Sz  (Root   4) =  0.500 0.500
 1e Reduced matrix elements (cm-1)
<S|| Hso(L-) ||S'> =    -2.1601499482    -0.0000000000
<S|| Hso(L0) ||S'> =     0.0000000000    -0.0000000517
<S|| Hso(L+) ||S'> =    -2.1601499482     0.0000000000
 1-elec SOC matrix (cm-1): < B(S,Sz) | Hso(1e) | A(S',Sz') >
                     |Sz'=-0.50>              |Sz'= 0.50>
 <Sz=-0.50|    0.000000   -0.000000i     1.763755   -0.000000i
 <Sz= 0.50|   -1.763755   -0.000000i    -0.000000    0.000000i
1-elec SOCC =     2.494326308 cm-1
 2e-SOMF Reduced matrix elements (cm-1)
<S|| Hso(L-) ||S'> =     1.0760207967     0.0000000000
<S|| Hso(L0) ||S'> =     0.0000000000     0.0000000181
<S|| Hso(L+) ||S'> =     1.0760207967    -0.0000000000
 2-elec mean-field SOC matrix (cm-1): < B(S,Sz) | Hso(2e-mf) | A(S',Sz') >
                     |Sz'=-0.50>              |Sz'= 0.50>
 <Sz=-0.50|    0.000000    0.000000i    -0.878567    0.000000i
 <Sz= 0.50|    0.878567    0.000000i     0.000000   -0.000000i
 Total mean-field SOC matrix (cm-1): < B(S,Sz) | Hsomf | A(S',Sz') >
                     |Sz'=-0.50>              |Sz'= 0.50>
 <Sz=-0.50|    0.000000   -0.000000i     0.885188   -0.000000i
 <Sz= 0.50|   -0.885188   -0.000000i    -0.000000    0.000000i
Mean-Field SOCC =     1.251844515 cm-1
   
**************************************************
State A: Root  3
State B: Root  5
  
Angular momentum components
< B | Lx | A > =     0.000000000i
< B | Ly | A > =     0.000000001i
< B | Lz | A > =     0.033883590i
  
Norm of one-particle transition density matrix
||gamma^AB||_total       =  0.108799
||gamma^AB||_symmetrized =  0.074226
||gamma^AB||_anti-symm   =  0.079547
  
Spin-orbit couplings
 Using HF (reference) density for the 2-elec mean-field SOC contribution
KET: S',Sz' (Root   3) =  0.500 0.500
BRA: S ,Sz  (Root   5) =  0.500 0.500
 1e Reduced matrix elements (cm-1)
<S|| Hso(L-) ||S'> =     0.0000000498    -0.0000000000
<S|| Hso(L0) ||S'> =     0.0000000000   -20.4949851121
<S|| Hso(L+) ||S'> =     0.0000000498     0.0000000000
 1-elec SOC matrix (cm-1): < B(S,Sz) | Hso(1e) | A(S',Sz') >
                     |Sz'=-0.50>              |Sz'= 0.50>
 <Sz=-0.50|    0.000000  -11.832785i    -0.000000   -0.000000i
 <Sz= 0.50|    0.000000   -0.000000i     0.000000   11.832785i
1-elec SOCC =    16.734085270 cm-1
 2e-SOMF Reduced matrix elements (cm-1)
<S|| Hso(L-) ||S'> =    -0.0000000185     0.0000000000
<S|| Hso(L0) ||S'> =     0.0000000000     7.3042856529
<S|| Hso(L+) ||S'> =    -0.0000000185    -0.0000000000
 2-elec mean-field SOC matrix (cm-1): < B(S,Sz) | Hso(2e-mf) | A(S',Sz') >
                     |Sz'=-0.50>              |Sz'= 0.50>
 <Sz=-0.50|    0.000000    4.217131i     0.000000    0.000000i
 <Sz= 0.50|   -0.000000    0.000000i    -0.000000   -4.217131i
 Total mean-field SOC matrix (cm-1): < B(S,Sz) | Hsomf | A(S',Sz') >
                     |Sz'=-0.50>              |Sz'= 0.50>
 <Sz=-0.50|    0.000000   -7.615654i    -0.000000   -0.000000i
 <Sz= 0.50|    0.000000   -0.000000i     0.000000    7.615654i
Mean-Field SOCC =    10.770161009 cm-1
   
**************************************************
State A: Root  4
State B: Root  1
  
Angular momentum components
< B | Lx | A > =    -0.250775149i
< B | Ly | A > =    -0.000000000i
< B | Lz | A > =     0.000000000i
  
Norm of one-particle transition density matrix
||gamma^AB||_total       =  0.946521
||gamma^AB||_symmetrized =  0.680409
||gamma^AB||_anti-symm   =  0.657986
  
Spin-orbit couplings
 Using HF (reference) density for the 2-elec mean-field SOC contribution
KET: S',Sz' (Root   4) =  0.500 0.500
BRA: S ,Sz  (Root   1) =  0.500 0.500
 1e Reduced matrix elements (cm-1)
<S|| Hso(L-) ||S'> =    -0.0000000000   -48.0134242099
<S|| Hso(L0) ||S'> =     0.0000000000     0.0000000000
<S|| Hso(L+) ||S'> =    -0.0000000000    48.0134242099
 1-elec SOC matrix (cm-1): < B(S,Sz) | Hso(1e) | A(S',Sz') >
                     |Sz'=-0.50>              |Sz'= 0.50>
 <Sz=-0.50|    0.000000    0.000000i     0.000000  -39.202797i
 <Sz= 0.50|   -0.000000  -39.202797i    -0.000000   -0.000000i
1-elec SOCC =    55.441126785 cm-1
 2e-SOMF Reduced matrix elements (cm-1)
<S|| Hso(L-) ||S'> =     0.0000000000    17.2124095741
<S|| Hso(L0) ||S'> =     0.0000000000    -0.0000000000
<S|| Hso(L+) ||S'> =     0.0000000000   -17.2124095741
 2-elec mean-field SOC matrix (cm-1): < B(S,Sz) | Hso(2e-mf) | A(S',Sz') >
                     |Sz'=-0.50>              |Sz'= 0.50>
 <Sz=-0.50|    0.000000   -0.000000i    -0.000000   14.053874i
 <Sz= 0.50|    0.000000   14.053874i     0.000000    0.000000i
 Total mean-field SOC matrix (cm-1): < B(S,Sz) | Hsomf | A(S',Sz') >
                     |Sz'=-0.50>              |Sz'= 0.50>
 <Sz=-0.50|    0.000000    0.000000i     0.000000  -25.148923i
 <Sz= 0.50|   -0.000000  -25.148923i    -0.000000   -0.000000i
Mean-Field SOCC =    35.565948183 cm-1
   
**************************************************
State A: Root  4
State B: Root  2
  
Angular momentum components
< B | Lx | A > =     0.000000000i
< B | Ly | A > =     0.000000000i
< B | Lz | A > =    -0.000000000i
  
Norm of one-particle transition density matrix
||gamma^AB||_total       =  0.266876
||gamma^AB||_symmetrized =  0.190989
||gamma^AB||_anti-symm   =  0.186403
  
Spin-orbit couplings
 Using HF (reference) density for the 2-elec mean-field SOC contribution
KET: S',Sz' (Root   4) =  0.500 0.500
BRA: S ,Sz  (Root   2) =  0.500 0.500
 1e Reduced matrix elements (cm-1)
<S|| Hso(L-) ||S'> =    -0.0000000000    -0.0000000211
<S|| Hso(L0) ||S'> =     0.0000000000    -0.0000000000
<S|| Hso(L+) ||S'> =    -0.0000000000     0.0000000211
 1-elec SOC matrix (cm-1): < B(S,Sz) | Hso(1e) | A(S',Sz') >
                     |Sz'=-0.50>              |Sz'= 0.50>
 <Sz=-0.50|    0.000000   -0.000000i     0.000000   -0.000000i
 <Sz= 0.50|   -0.000000   -0.000000i    -0.000000    0.000000i
1-elec SOCC =     0.000000024 cm-1
 2e-SOMF Reduced matrix elements (cm-1)
<S|| Hso(L-) ||S'> =     0.0000000000     0.0000000077
<S|| Hso(L0) ||S'> =     0.0000000000     0.0000000000
<S|| Hso(L+) ||S'> =     0.0000000000    -0.0000000077
 2-elec mean-field SOC matrix (cm-1): < B(S,Sz) | Hso(2e-mf) | A(S',Sz') >
                     |Sz'=-0.50>              |Sz'= 0.50>
 <Sz=-0.50|    0.000000    0.000000i    -0.000000    0.000000i
 <Sz= 0.50|    0.000000    0.000000i     0.000000   -0.000000i
 Total mean-field SOC matrix (cm-1): < B(S,Sz) | Hsomf | A(S',Sz') >
                     |Sz'=-0.50>              |Sz'= 0.50>
 <Sz=-0.50|    0.000000   -0.000000i     0.000000   -0.000000i
 <Sz= 0.50|   -0.000000   -0.000000i    -0.000000    0.000000i
Mean-Field SOCC =     0.000000015 cm-1
   
**************************************************
State A: Root  4
State B: Root  3
  
Angular momentum components
< B | Lx | A > =     0.000000000i
< B | Ly | A > =    -0.072337163i
< B | Lz | A > =     0.000000000i
  
Norm of one-particle transition density matrix
||gamma^AB||_total       =  0.208171
||gamma^AB||_symmetrized =  0.154398
||gamma^AB||_anti-symm   =  0.139631
  
Spin-orbit couplings
 Using HF (reference) density for the 2-elec mean-field SOC contribution
KET: S',Sz' (Root   4) =  0.500 0.500
BRA: S ,Sz  (Root   3) =  0.500 0.500
 1e Reduced matrix elements (cm-1)
<S|| Hso(L-) ||S'> =     2.1601499482     0.0000000000
<S|| Hso(L0) ||S'> =     0.0000000000     0.0000000517
<S|| Hso(L+) ||S'> =     2.1601499482    -0.0000000000
 1-elec SOC matrix (cm-1): < B(S,Sz) | Hso(1e) | A(S',Sz') >
                     |Sz'=-0.50>              |Sz'= 0.50>
 <Sz=-0.50|    0.000000    0.000000i    -1.763755    0.000000i
 <Sz= 0.50|    1.763755    0.000000i     0.000000   -0.000000i
1-elec SOCC =     2.494326308 cm-1
 2e-SOMF Reduced matrix elements (cm-1)
<S|| Hso(L-) ||S'> =    -1.0760207967    -0.0000000000
<S|| Hso(L0) ||S'> =     0.0000000000    -0.0000000181
<S|| Hso(L+) ||S'> =    -1.0760207967     0.0000000000
 2-elec mean-field SOC matrix (cm-1): < B(S,Sz) | Hso(2e-mf) | A(S',Sz') >
                     |Sz'=-0.50>              |Sz'= 0.50>
 <Sz=-0.50|    0.000000   -0.000000i     0.878567   -0.000000i
 <Sz= 0.50|   -0.878567   -0.000000i    -0.000000    0.000000i
 Total mean-field SOC matrix (cm-1): < B(S,Sz) | Hsomf | A(S',Sz') >
                     |Sz'=-0.50>              |Sz'= 0.50>
 <Sz=-0.50|    0.000000    0.000000i    -0.885188    0.000000i
 <Sz= 0.50|    0.885188    0.000000i     0.000000   -0.000000i
Mean-Field SOCC =     1.251844515 cm-1
   
**************************************************
State A: Root  4
State B: Root  5
  
Angular momentum components
< B | Lx | A > =     0.479400662i
< B | Ly | A > =    -0.000000000i
< B | Lz | A > =     0.000000000i
  
Norm of one-particle transition density matrix
||gamma^AB||_total       =  0.605643
||gamma^AB||_symmetrized =  0.470925
||gamma^AB||_anti-symm   =  0.380833
  
Spin-orbit couplings
 Using HF (reference) density for the 2-elec mean-field SOC contribution
KET: S',Sz' (Root   4) =  0.500 0.500
BRA: S ,Sz  (Root   5) =  0.500 0.500
 1e Reduced matrix elements (cm-1)
<S|| Hso(L-) ||S'> =    -0.0000000000   -50.0456253199
<S|| Hso(L0) ||S'> =     0.0000000000     0.0000000000
<S|| Hso(L+) ||S'> =    -0.0000000000    50.0456253199
 1-elec SOC matrix (cm-1): < B(S,Sz) | Hso(1e) | A(S',Sz') >
                     |Sz'=-0.50>              |Sz'= 0.50>
 <Sz=-0.50|    0.000000    0.000000i     0.000000  -40.862082i
 <Sz= 0.50|   -0.000000  -40.862082i    -0.000000   -0.000000i
1-elec SOCC =    57.787710500 cm-1
 2e-SOMF Reduced matrix elements (cm-1)
<S|| Hso(L-) ||S'> =     0.0000000000    19.8538647190
<S|| Hso(L0) ||S'> =     0.0000000000    -0.0000000000
<S|| Hso(L+) ||S'> =     0.0000000000   -19.8538647190
 2-elec mean-field SOC matrix (cm-1): < B(S,Sz) | Hso(2e-mf) | A(S',Sz') >
                     |Sz'=-0.50>              |Sz'= 0.50>
 <Sz=-0.50|    0.000000   -0.000000i    -0.000000   16.210613i
 <Sz= 0.50|    0.000000   16.210613i     0.000000    0.000000i
 Total mean-field SOC matrix (cm-1): < B(S,Sz) | Hsomf | A(S',Sz') >
                     |Sz'=-0.50>              |Sz'= 0.50>
 <Sz=-0.50|    0.000000    0.000000i     0.000000  -24.651469i
 <Sz= 0.50|   -0.000000  -24.651469i    -0.000000   -0.000000i
Mean-Field SOCC =    34.862442221 cm-1
   
**************************************************
State A: Root  5
State B: Root  1
  
Angular momentum components
< B | Lx | A > =     0.000000000i
< B | Ly | A > =     0.000000000i
< B | Lz | A > =    -0.000000000i
  
Norm of one-particle transition density matrix
||gamma^AB||_total       =  0.786710
||gamma^AB||_symmetrized =  0.557587
||gamma^AB||_anti-symm   =  0.554987
  
Spin-orbit couplings
 Using HF (reference) density for the 2-elec mean-field SOC contribution
KET: S',Sz' (Root   5) =  0.500 0.500
BRA: S ,Sz  (Root   1) =  0.500 0.500
 1e Reduced matrix elements (cm-1)
<S|| Hso(L-) ||S'> =    -0.0000000000     0.0000000457
<S|| Hso(L0) ||S'> =     0.0000000000     0.0000000000
<S|| Hso(L+) ||S'> =    -0.0000000000    -0.0000000457
 1-elec SOC matrix (cm-1): < B(S,Sz) | Hso(1e) | A(S',Sz') >
                     |Sz'=-0.50>              |Sz'= 0.50>
 <Sz=-0.50|    0.000000    0.000000i     0.000000    0.000000i
 <Sz= 0.50|   -0.000000    0.000000i    -0.000000   -0.000000i
1-elec SOCC =     0.000000053 cm-1
 2e-SOMF Reduced matrix elements (cm-1)
<S|| Hso(L-) ||S'> =     0.0000000000    -0.0000000164
<S|| Hso(L0) ||S'> =     0.0000000000    -0.0000000000
<S|| Hso(L+) ||S'> =     0.0000000000     0.0000000164
 2-elec mean-field SOC matrix (cm-1): < B(S,Sz) | Hso(2e-mf) | A(S',Sz') >
                     |Sz'=-0.50>              |Sz'= 0.50>
 <Sz=-0.50|    0.000000   -0.000000i    -0.000000   -0.000000i
 <Sz= 0.50|    0.000000   -0.000000i     0.000000    0.000000i
 Total mean-field SOC matrix (cm-1): < B(S,Sz) | Hsomf | A(S',Sz') >
                     |Sz'=-0.50>              |Sz'= 0.50>
 <Sz=-0.50|    0.000000    0.000000i     0.000000    0.000000i
 <Sz= 0.50|   -0.000000    0.000000i    -0.000000   -0.000000i
Mean-Field SOCC =     0.000000034 cm-1
   
**************************************************
State A: Root  5
State B: Root  2
  
Angular momentum components
< B | Lx | A > =     0.360395486i
< B | Ly | A > =    -0.000000000i
< B | Lz | A > =    -0.000000000i
  
Norm of one-particle transition density matrix
||gamma^AB||_total       =  0.939288
||gamma^AB||_symmetrized =  0.651732
||gamma^AB||_anti-symm   =  0.676393
  
Spin-orbit couplings
 Using HF (reference) density for the 2-elec mean-field SOC contribution
KET: S',Sz' (Root   5) =  0.500 0.500
BRA: S ,Sz  (Root   2) =  0.500 0.500
 1e Reduced matrix elements (cm-1)
<S|| Hso(L-) ||S'> =    -0.0000000000   -13.5459022229
<S|| Hso(L0) ||S'> =     0.0000000000    -0.0000000000
<S|| Hso(L+) ||S'> =    -0.0000000000    13.5459022229
 1-elec SOC matrix (cm-1): < B(S,Sz) | Hso(1e) | A(S',Sz') >
                     |Sz'=-0.50>              |Sz'= 0.50>
 <Sz=-0.50|    0.000000   -0.000000i     0.000000  -11.060183i
 <Sz= 0.50|   -0.000000  -11.060183i    -0.000000    0.000000i
1-elec SOCC =    15.641460590 cm-1
 2e-SOMF Reduced matrix elements (cm-1)
<S|| Hso(L-) ||S'> =     0.0000000000     5.0008167948
<S|| Hso(L0) ||S'> =     0.0000000000     0.0000000000
<S|| Hso(L+) ||S'> =     0.0000000000    -5.0008167948
 2-elec mean-field SOC matrix (cm-1): < B(S,Sz) | Hso(2e-mf) | A(S',Sz') >
                     |Sz'=-0.50>              |Sz'= 0.50>
 <Sz=-0.50|    0.000000    0.000000i    -0.000000    4.083150i
 <Sz= 0.50|    0.000000    4.083150i     0.000000   -0.000000i
 Total mean-field SOC matrix (cm-1): < B(S,Sz) | Hsomf | A(S',Sz') >
                     |Sz'=-0.50>              |Sz'= 0.50>
 <Sz=-0.50|    0.000000   -0.000000i     0.000000   -6.977033i
 <Sz= 0.50|   -0.000000   -6.977033i    -0.000000    0.000000i
Mean-Field SOCC =     9.867014744 cm-1
   
**************************************************
State A: Root  5
State B: Root  3
  
Angular momentum components
< B | Lx | A > =    -0.000000000i
< B | Ly | A > =    -0.000000001i
< B | Lz | A > =    -0.033883590i
  
Norm of one-particle transition density matrix
||gamma^AB||_total       =  0.108799
||gamma^AB||_symmetrized =  0.074226
||gamma^AB||_anti-symm   =  0.079547
  
Spin-orbit couplings
 Using HF (reference) density for the 2-elec mean-field SOC contribution
KET: S',Sz' (Root   5) =  0.500 0.500
BRA: S ,Sz  (Root   3) =  0.500 0.500
 1e Reduced matrix elements (cm-1)
<S|| Hso(L-) ||S'> =    -0.0000000498     0.0000000000
<S|| Hso(L0) ||S'> =     0.0000000000    20.4949851121
<S|| Hso(L+) ||S'> =    -0.0000000498    -0.0000000000
 1-elec SOC matrix (cm-1): < B(S,Sz) | Hso(1e) | A(S',Sz') >
                     |Sz'=-0.50>              |Sz'= 0.50>
 <Sz=-0.50|    0.000000   11.832785i     0.000000    0.000000i
 <Sz= 0.50|   -0.000000    0.000000i    -0.000000  -11.832785i
1-elec SOCC =    16.734085270 cm-1
 2e-SOMF Reduced matrix elements (cm-1)
<S|| Hso(L-) ||S'> =     0.0000000185    -0.0000000000
<S|| Hso(L0) ||S'> =     0.0000000000    -7.3042856529
<S|| Hso(L+) ||S'> =     0.0000000185     0.0000000000
 2-elec mean-field SOC matrix (cm-1): < B(S,Sz) | Hso(2e-mf) | A(S',Sz') >
                     |Sz'=-0.50>              |Sz'= 0.50>
 <Sz=-0.50|    0.000000   -4.217131i    -0.000000   -0.000000i
 <Sz= 0.50|    0.000000   -0.000000i     0.000000    4.217131i
 Total mean-field SOC matrix (cm-1): < B(S,Sz) | Hsomf | A(S',Sz') >
                     |Sz'=-0.50>              |Sz'= 0.50>
 <Sz=-0.50|    0.000000    7.615654i     0.000000    0.000000i
 <Sz= 0.50|   -0.000000    0.000000i    -0.000000   -7.615654i
Mean-Field SOCC =    10.770161009 cm-1
   
**************************************************
State A: Root  5
State B: Root  4
  
Angular momentum components
< B | Lx | A > =    -0.479400662i
< B | Ly | A > =     0.000000000i
< B | Lz | A > =    -0.000000000i
  
Norm of one-particle transition density matrix
||gamma^AB||_total       =  0.605643
||gamma^AB||_symmetrized =  0.470925
||gamma^AB||_anti-symm   =  0.380833
  
Spin-orbit couplings
 Using HF (reference) density for the 2-elec mean-field SOC contribution
KET: S',Sz' (Root   5) =  0.500 0.500
BRA: S ,Sz  (Root   4) =  0.500 0.500
 1e Reduced matrix elements (cm-1)
<S|| Hso(L-) ||S'> =     0.0000000000    50.0456253199
<S|| Hso(L0) ||S'> =     0.0000000000    -0.0000000000
<S|| Hso(L+) ||S'> =     0.0000000000   -50.0456253199
 1-elec SOC matrix (cm-1): < B(S,Sz) | Hso(1e) | A(S',Sz') >
                     |Sz'=-0.50>              |Sz'= 0.50>
 <Sz=-0.50|    0.000000   -0.000000i    -0.000000   40.862082i
 <Sz= 0.50|    0.000000   40.862082i     0.000000    0.000000i
1-elec SOCC =    57.787710500 cm-1
 2e-SOMF Reduced matrix elements (cm-1)
<S|| Hso(L-) ||S'> =    -0.0000000000   -19.8538647190
<S|| Hso(L0) ||S'> =     0.0000000000     0.0000000000
<S|| Hso(L+) ||S'> =    -0.0000000000    19.8538647190
 2-elec mean-field SOC matrix (cm-1): < B(S,Sz) | Hso(2e-mf) | A(S',Sz') >
                     |Sz'=-0.50>              |Sz'= 0.50>
 <Sz=-0.50|    0.000000    0.000000i     0.000000  -16.210613i
 <Sz= 0.50|   -0.000000  -16.210613i    -0.000000   -0.000000i
 Total mean-field SOC matrix (cm-1): < B(S,Sz) | Hsomf | A(S',Sz') >
                     |Sz'=-0.50>              |Sz'= 0.50>
 <Sz=-0.50|    0.000000   -0.000000i    -0.000000   24.651469i
 <Sz= 0.50|    0.000000   24.651469i     0.000000    0.000000i
Mean-Field SOCC =    34.862442221 cm-1
   
**************************************************
RAS-CI timing summary (seconds)
  CPU time          2.54s
  System time       0.00s
  Wall time         9.56s
  
 
 --------------------------------------------------------------
             Orbital Energies (a.u.) and Symmetries
 --------------------------------------------------------------
 
 Alpha MOs, Restricted
 -- Doubly Occupied --           
-20.956  -1.823  -1.150  -0.972
  1 A1    2 A1    1 B1    1 B2                                                 
 -- Singly Occupied (Occupied) --
 -1.135
  3 A1                                                                         
 -- Virtual --                   
  0.075   0.181
  4 A1    2 B1                                                                 
 
 Beta MOs, Restricted
 -- Doubly Occupied --           
-20.928  -1.700  -1.107  -0.916
  1 A1    2 A1    1 B1    1 B2                                                 
 -- Singly Occupied (Vacant) --  
 -0.292
  3 A1                                                                         
 -- Virtual --                   
  0.124   0.233
  4 A1    2 B1                                                                 
 --------------------------------------------------------------
 
          Ground-State Mulliken Net Atomic Charges

     Atom                 Charge (a.u.)
  ----------------------------------------
      1 O                     0.048961
      2 H                     0.475519
      3 H                     0.475519
  ----------------------------------------
  Sum of atomic charges =     1.000000

 -----------------------------------------------------------------
                    Cartesian Multipole Moments
 -----------------------------------------------------------------
    Charge (ESU x 10^10)
                 4.8032
    Dipole Moment (Debye)
         X      -0.0000      Y      -0.0000      Z      -1.8993
       Tot       1.8993
    Quadrupole Moments (Debye-Ang)
        XX      -1.7097     XY       0.0000     YY      -5.4316
        XZ       0.0000     YZ       0.0000     ZZ      -3.2320
    Octopole Moments (Debye-Ang^2)
       XXX      -0.0000    XXY      -0.0000    XYY      -0.0000
       YYY      -0.0000    XXZ      -1.7814    XYZ      -0.0000
       YYZ      -0.1378    XZZ       0.0000    YZZ      -0.0000
       ZZZ      -0.7126
    Hexadecapole Moments (Debye-Ang^3)
      XXXX      -3.1459   XXXY       0.0000   XXYY      -1.4108
      XYYY       0.0000   YYYY      -2.8013   XXXZ       0.0000
      XXYZ       0.0000   XYYZ       0.0000   YYYZ      -0.0000
      XXZZ      -0.6180   XYZZ       0.0000   YYZZ      -1.0158
      XZZZ       0.0000   YZZZ       0.0000   ZZZZ      -2.9171
 -----------------------------------------------------------------
 Mayer SCF Bond Order, atomic valence on the diagonal:

            1           2           3
    1   1.4912078   0.7456039   0.7456039
    2   0.7456039   0.7723315   0.0267276
    3   0.7456039   0.0267276   0.7723315


 Total job time:  17.52s(wall), 2.73s(cpu) 
 Wed Oct 25 18:24:16 2023

        *************************************************************
        *                                                           *
        *  Thank you very much for using Q-Chem.  Have a nice day.  *
        *                                                           *
        *************************************************************


